# vtk DataFile Version 2.0
fem_36.vtk
ASCII
DATASET UNSTRUCTURED_GRID
POINTS 729 float
0 0 0
0.125 0 0
0.25 0 0
0.375 0 0
0.5 0 0
0.625 0 0
0.75 0 0
0.875 0 0
1 0 0
0 0.125 0
0.125 0.125 0
0.25 0.125 0
0.375 0.125 0
0.5 0.125 0
0.625 0.125 0
0.75 0.125 0
0.875 0.125 0
1 0.125 0
0 0.25 0
0.125 0.25 0
0.25 0.25 0
0.375 0.25 0
0.5 0.25 0
0.625 0.25 0
0.75 0.25 0
0.875 0.25 0
1 0.25 0
0 0.375 0
0.125 0.375 0
0.25 0.375 0
0.375 0.375 0
0.5 0.375 0
0.625 0.375 0
0.75 0.375 0
0.875 0.375 0
1 0.375 0
0 0.5 0
0.125 0.5 0
0.25 0.5 0
0.375 0.5 0
0.5 0.5 0
0.625 0.5 0
0.75 0.5 0
0.875 0.5 0
1 0.5 0
0 0.625 0
0.125 0.625 0
0.25 0.625 0
0.375 0.625 0
0.5 0.625 0
0.625 0.625 0
0.75 0.625 0
0.875 0.625 0
1 0.625 0
0 0.75 0
0.125 0.75 0
0.25 0.75 0
0.375 0.75 0
0.5 0.75 0
0.625 0.75 0
0.75 0.75 0
0.875 0.75 0
1 0.75 0
0 0.875 0
0.125 0.875 0
0.25 0.875 0
0.375 0.875 0
0.5 0.875 0
0.625 0.875 0
0.75 0.875 0
0.875 0.875 0
1 0.875 0
0 1 0
0.125 1 0
0.25 1 0
0.375 1 0
0.5 1 0
0.625 1 0
0.75 1 0
0.875 1 0
1 1 0
0 0 0.125
0.125 0 0.125
0.25 0 0.125
0.375 0 0.125
0.5 0 0.125
0.625 0 0.125
0.75 0 0.125
0.875 0 0.125
1 0 0.125
0 0.125 0.125
0.125 0.125 0.125
0.25 0.125 0.125
0.375 0.125 0.125
0.5 0.125 0.125
0.625 0.125 0.125
0.75 0.125 0.125
0.875 0.125 0.125
1 0.125 0.125
0 0.25 0.125
0.125 0.25 0.125
0.25 0.25 0.125
0.375 0.25 0.125
0.5 0.25 0.125
0.625 0.25 0.125
0.75 0.25 0.125
0.875 0.25 0.125
1 0.25 0.125
0 0.375 0.125
0.125 0.375 0.125
0.25 0.375 0.125
0.375 0.375 0.125
0.5 0.375 0.125
0.625 0.375 0.125
0.75 0.375 0.125
0.875 0.375 0.125
1 0.375 0.125
0 0.5 0.125
0.125 0.5 0.125
0.25 0.5 0.125
0.375 0.5 0.125
0.5 0.5 0.125
0.625 0.5 0.125
0.75 0.5 0.125
0.875 0.5 0.125
1 0.5 0.125
0 0.625 0.125
0.125 0.625 0.125
0.25 0.625 0.125
0.375 0.625 0.125
0.5 0.625 0.125
0.625 0.625 0.125
0.75 0.625 0.125
0.875 0.625 0.125
1 0.625 0.125
0 0.75 0.125
0.125 0.75 0.125
0.25 0.75 0.125
0.375 0.75 0.125
0.5 0.75 0.125
0.625 0.75 0.125
0.75 0.75 0.125
0.875 0.75 0.125
1 0.75 0.125
0 0.875 0.125
0.125 0.875 0.125
0.25 0.875 0.125
0.375 0.875 0.125
0.5 0.875 0.125
0.625 0.875 0.125
0.75 0.875 0.125
0.875 0.875 0.125
1 0.875 0.125
0 1 0.125
0.125 1 0.125
0.25 1 0.125
0.375 1 0.125
0.5 1 0.125
0.625 1 0.125
0.75 1 0.125
0.875 1 0.125
1 1 0.125
0 0 0.25
0.125 0 0.25
0.25 0 0.25
0.375 0 0.25
0.5 0 0.25
0.625 0 0.25
0.75 0 0.25
0.875 0 0.25
1 0 0.25
0 0.125 0.25
0.125 0.125 0.25
0.25 0.125 0.25
0.375 0.125 0.25
0.5 0.125 0.25
0.625 0.125 0.25
0.75 0.125 0.25
0.875 0.125 0.25
1 0.125 0.25
0 0.25 0.25
0.125 0.25 0.25
0.25 0.25 0.25
0.375 0.25 0.25
0.5 0.25 0.25
0.625 0.25 0.25
0.75 0.25 0.25
0.875 0.25 0.25
1 0.25 0.25
0 0.375 0.25
0.125 0.375 0.25
0.25 0.375 0.25
0.375 0.375 0.25
0.5 0.375 0.25
0.625 0.375 0.25
0.75 0.375 0.25
0.875 0.375 0.25
1 0.375 0.25
0 0.5 0.25
0.125 0.5 0.25
0.25 0.5 0.25
0.375 0.5 0.25
0.5 0.5 0.25
0.625 0.5 0.25
0.75 0.5 0.25
0.875 0.5 0.25
1 0.5 0.25
0 0.625 0.25
0.125 0.625 0.25
0.25 0.625 0.25
0.375 0.625 0.25
0.5 0.625 0.25
0.625 0.625 0.25
0.75 0.625 0.25
0.875 0.625 0.25
1 0.625 0.25
0 0.75 0.25
0.125 0.75 0.25
0.25 0.75 0.25
0.375 0.75 0.25
0.5 0.75 0.25
0.625 0.75 0.25
0.75 0.75 0.25
0.875 0.75 0.25
1 0.75 0.25
0 0.875 0.25
0.125 0.875 0.25
0.25 0.875 0.25
0.375 0.875 0.25
0.5 0.875 0.25
0.625 0.875 0.25
0.75 0.875 0.25
0.875 0.875 0.25
1 0.875 0.25
0 1 0.25
0.125 1 0.25
0.25 1 0.25
0.375 1 0.25
0.5 1 0.25
0.625 1 0.25
0.75 1 0.25
0.875 1 0.25
1 1 0.25
0 0 0.375
0.125 0 0.375
0.25 0 0.375
0.375 0 0.375
0.5 0 0.375
0.625 0 0.375
0.75 0 0.375
0.875 0 0.375
1 0 0.375
0 0.125 0.375
0.125 0.125 0.375
0.25 0.125 0.375
0.375 0.125 0.375
0.5 0.125 0.375
0.625 0.125 0.375
0.75 0.125 0.375
0.875 0.125 0.375
1 0.125 0.375
0 0.25 0.375
0.125 0.25 0.375
0.25 0.25 0.375
0.375 0.25 0.375
0.5 0.25 0.375
0.625 0.25 0.375
0.75 0.25 0.375
0.875 0.25 0.375
1 0.25 0.375
0 0.375 0.375
0.125 0.375 0.375
0.25 0.375 0.375
0.375 0.375 0.375
0.5 0.375 0.375
0.625 0.375 0.375
0.75 0.375 0.375
0.875 0.375 0.375
1 0.375 0.375
0 0.5 0.375
0.125 0.5 0.375
0.25 0.5 0.375
0.375 0.5 0.375
0.5 0.5 0.375
0.625 0.5 0.375
0.75 0.5 0.375
0.875 0.5 0.375
1 0.5 0.375
0 0.625 0.375
0.125 0.625 0.375
0.25 0.625 0.375
0.375 0.625 0.375
0.5 0.625 0.375
0.625 0.625 0.375
0.75 0.625 0.375
0.875 0.625 0.375
1 0.625 0.375
0 0.75 0.375
0.125 0.75 0.375
0.25 0.75 0.375
0.375 0.75 0.375
0.5 0.75 0.375
0.625 0.75 0.375
0.75 0.75 0.375
0.875 0.75 0.375
1 0.75 0.375
0 0.875 0.375
0.125 0.875 0.375
0.25 0.875 0.375
0.375 0.875 0.375
0.5 0.875 0.375
0.625 0.875 0.375
0.75 0.875 0.375
0.875 0.875 0.375
1 0.875 0.375
0 1 0.375
0.125 1 0.375
0.25 1 0.375
0.375 1 0.375
0.5 1 0.375
0.625 1 0.375
0.75 1 0.375
0.875 1 0.375
1 1 0.375
0 0 0.5
0.125 0 0.5
0.25 0 0.5
0.375 0 0.5
0.5 0 0.5
0.625 0 0.5
0.75 0 0.5
0.875 0 0.5
1 0 0.5
0 0.125 0.5
0.125 0.125 0.5
0.25 0.125 0.5
0.375 0.125 0.5
0.5 0.125 0.5
0.625 0.125 0.5
0.75 0.125 0.5
0.875 0.125 0.5
1 0.125 0.5
0 0.25 0.5
0.125 0.25 0.5
0.25 0.25 0.5
0.375 0.25 0.5
0.5 0.25 0.5
0.625 0.25 0.5
0.75 0.25 0.5
0.875 0.25 0.5
1 0.25 0.5
0 0.375 0.5
0.125 0.375 0.5
0.25 0.375 0.5
0.375 0.375 0.5
0.5 0.375 0.5
0.625 0.375 0.5
0.75 0.375 0.5
0.875 0.375 0.5
1 0.375 0.5
0 0.5 0.5
0.125 0.5 0.5
0.25 0.5 0.5
0.375 0.5 0.5
0.5 0.5 0.5
0.625 0.5 0.5
0.75 0.5 0.5
0.875 0.5 0.5
1 0.5 0.5
0 0.625 0.5
0.125 0.625 0.5
0.25 0.625 0.5
0.375 0.625 0.5
0.5 0.625 0.5
0.625 0.625 0.5
0.75 0.625 0.5
0.875 0.625 0.5
1 0.625 0.5
0 0.75 0.5
0.125 0.75 0.5
0.25 0.75 0.5
0.375 0.75 0.5
0.5 0.75 0.5
0.625 0.75 0.5
0.75 0.75 0.5
0.875 0.75 0.5
1 0.75 0.5
0 0.875 0.5
0.125 0.875 0.5
0.25 0.875 0.5
0.375 0.875 0.5
0.5 0.875 0.5
0.625 0.875 0.5
0.75 0.875 0.5
0.875 0.875 0.5
1 0.875 0.5
0 1 0.5
0.125 1 0.5
0.25 1 0.5
0.375 1 0.5
0.5 1 0.5
0.625 1 0.5
0.75 1 0.5
0.875 1 0.5
1 1 0.5
0 0 0.625
0.125 0 0.625
0.25 0 0.625
0.375 0 0.625
0.5 0 0.625
0.625 0 0.625
0.75 0 0.625
0.875 0 0.625
1 0 0.625
0 0.125 0.625
0.125 0.125 0.625
0.25 0.125 0.625
0.375 0.125 0.625
0.5 0.125 0.625
0.625 0.125 0.625
0.75 0.125 0.625
0.875 0.125 0.625
1 0.125 0.625
0 0.25 0.625
0.125 0.25 0.625
0.25 0.25 0.625
0.375 0.25 0.625
0.5 0.25 0.625
0.625 0.25 0.625
0.75 0.25 0.625
0.875 0.25 0.625
1 0.25 0.625
0 0.375 0.625
0.125 0.375 0.625
0.25 0.375 0.625
0.375 0.375 0.625
0.5 0.375 0.625
0.625 0.375 0.625
0.75 0.375 0.625
0.875 0.375 0.625
1 0.375 0.625
0 0.5 0.625
0.125 0.5 0.625
0.25 0.5 0.625
0.375 0.5 0.625
0.5 0.5 0.625
0.625 0.5 0.625
0.75 0.5 0.625
0.875 0.5 0.625
1 0.5 0.625
0 0.625 0.625
0.125 0.625 0.625
0.25 0.625 0.625
0.375 0.625 0.625
0.5 0.625 0.625
0.625 0.625 0.625
0.75 0.625 0.625
0.875 0.625 0.625
1 0.625 0.625
0 0.75 0.625
0.125 0.75 0.625
0.25 0.75 0.625
0.375 0.75 0.625
0.5 0.75 0.625
0.625 0.75 0.625
0.75 0.75 0.625
0.875 0.75 0.625
1 0.75 0.625
0 0.875 0.625
0.125 0.875 0.625
0.25 0.875 0.625
0.375 0.875 0.625
0.5 0.875 0.625
0.625 0.875 0.625
0.75 0.875 0.625
0.875 0.875 0.625
1 0.875 0.625
0 1 0.625
0.125 1 0.625
0.25 1 0.625
0.375 1 0.625
0.5 1 0.625
0.625 1 0.625
0.75 1 0.625
0.875 1 0.625
1 1 0.625
0 0 0.75
0.125 0 0.75
0.25 0 0.75
0.375 0 0.75
0.5 0 0.75
0.625 0 0.75
0.75 0 0.75
0.875 0 0.75
1 0 0.75
0 0.125 0.75
0.125 0.125 0.75
0.25 0.125 0.75
0.375 0.125 0.75
0.5 0.125 0.75
0.625 0.125 0.75
0.75 0.125 0.75
0.875 0.125 0.75
1 0.125 0.75
0 0.25 0.75
0.125 0.25 0.75
0.25 0.25 0.75
0.375 0.25 0.75
0.5 0.25 0.75
0.625 0.25 0.75
0.75 0.25 0.75
0.875 0.25 0.75
1 0.25 0.75
0 0.375 0.75
0.125 0.375 0.75
0.25 0.375 0.75
0.375 0.375 0.75
0.5 0.375 0.75
0.625 0.375 0.75
0.75 0.375 0.75
0.875 0.375 0.75
1 0.375 0.75
0 0.5 0.75
0.125 0.5 0.75
0.25 0.5 0.75
0.375 0.5 0.75
0.5 0.5 0.75
0.625 0.5 0.75
0.75 0.5 0.75
0.875 0.5 0.75
1 0.5 0.75
0 0.625 0.75
0.125 0.625 0.75
0.25 0.625 0.75
0.375 0.625 0.75
0.5 0.625 0.75
0.625 0.625 0.75
0.75 0.625 0.75
0.875 0.625 0.75
1 0.625 0.75
0 0.75 0.75
0.125 0.75 0.75
0.25 0.75 0.75
0.375 0.75 0.75
0.5 0.75 0.75
0.625 0.75 0.75
0.75 0.75 0.75
0.875 0.75 0.75
1 0.75 0.75
0 0.875 0.75
0.125 0.875 0.75
0.25 0.875 0.75
0.375 0.875 0.75
0.5 0.875 0.75
0.625 0.875 0.75
0.75 0.875 0.75
0.875 0.875 0.75
1 0.875 0.75
0 1 0.75
0.125 1 0.75
0.25 1 0.75
0.375 1 0.75
0.5 1 0.75
0.625 1 0.75
0.75 1 0.75
0.875 1 0.75
1 1 0.75
0 0 0.875
0.125 0 0.875
0.25 0 0.875
0.375 0 0.875
0.5 0 0.875
0.625 0 0.875
0.75 0 0.875
0.875 0 0.875
1 0 0.875
0 0.125 0.875
0.125 0.125 0.875
0.25 0.125 0.875
0.375 0.125 0.875
0.5 0.125 0.875
0.625 0.125 0.875
0.75 0.125 0.875
0.875 0.125 0.875
1 0.125 0.875
0 0.25 0.875
0.125 0.25 0.875
0.25 0.25 0.875
0.375 0.25 0.875
0.5 0.25 0.875
0.625 0.25 0.875
0.75 0.25 0.875
0.875 0.25 0.875
1 0.25 0.875
0 0.375 0.875
0.125 0.375 0.875
0.25 0.375 0.875
0.375 0.375 0.875
0.5 0.375 0.875
0.625 0.375 0.875
0.75 0.375 0.875
0.875 0.375 0.875
1 0.375 0.875
0 0.5 0.875
0.125 0.5 0.875
0.25 0.5 0.875
0.375 0.5 0.875
0.5 0.5 0.875
0.625 0.5 0.875
0.75 0.5 0.875
0.875 0.5 0.875
1 0.5 0.875
0 0.625 0.875
0.125 0.625 0.875
0.25 0.625 0.875
0.375 0.625 0.875
0.5 0.625 0.875
0.625 0.625 0.875
0.75 0.625 0.875
0.875 0.625 0.875
1 0.625 0.875
0 0.75 0.875
0.125 0.75 0.875
0.25 0.75 0.875
0.375 0.75 0.875
0.5 0.75 0.875
0.625 0.75 0.875
0.75 0.75 0.875
0.875 0.75 0.875
1 0.75 0.875
0 0.875 0.875
0.125 0.875 0.875
0.25 0.875 0.875
0.375 0.875 0.875
0.5 0.875 0.875
0.625 0.875 0.875
0.75 0.875 0.875
0.875 0.875 0.875
1 0.875 0.875
0 1 0.875
0.125 1 0.875
0.25 1 0.875
0.375 1 0.875
0.5 1 0.875
0.625 1 0.875
0.75 1 0.875
0.875 1 0.875
1 1 0.875
0 0 1
0.125 0 1
0.25 0 1
0.375 0 1
0.5 0 1
0.625 0 1
0.75 0 1
0.875 0 1
1 0 1
0 0.125 1
0.125 0.125 1
0.25 0.125 1
0.375 0.125 1
0.5 0.125 1
0.625 0.125 1
0.75 0.125 1
0.875 0.125 1
1 0.125 1
0 0.25 1
0.125 0.25 1
0.25 0.25 1
0.375 0.25 1
0.5 0.25 1
0.625 0.25 1
0.75 0.25 1
0.875 0.25 1
1 0.25 1
0 0.375 1
0.125 0.375 1
0.25 0.375 1
0.375 0.375 1
0.5 0.375 1
0.625 0.375 1
0.75 0.375 1
0.875 0.375 1
1 0.375 1
0 0.5 1
0.125 0.5 1
0.25 0.5 1
0.375 0.5 1
0.5 0.5 1
0.625 0.5 1
0.75 0.5 1
0.875 0.5 1
1 0.5 1
0 0.625 1
0.125 0.625 1
0.25 0.625 1
0.375 0.625 1
0.5 0.625 1
0.625 0.625 1
0.75 0.625 1
0.875 0.625 1
1 0.625 1
[...]
POINT_DATA 729
SCALARS scalars float
LOOKUP_TABLE default
0
0
0
0
0
0
0
0
0
0
0
0
0
0
0
0
0
0
0
0
0
0
0
0
0
0
0
0
0
0
0
0
0
0
0
0
0
0
0
0
0
0
0
0
0
0
0
0
0
0
0
0
0
0
0
0
0
0
0
0
0
0
0
0
0
0
0
0
0
0
0
0
0
0
0
0
0
0
0
0
0
0
0
0
0
0
0
0
0
0
0
0.001953124958585745
0.003906250039310707
0.005859374992645377
0.007812500014238015
0.009765624995799384
0.01171874999840314
0.01367187497821841
0.01562500000000001
0
0.003906250039310704
0.007812499987638117
0.01171875006547787
0.01562500005965192
0.01953125004103216
0.02343750001993461
0.027343749998801
0.03125000000000002
0
0.005859374992645376
0.01171875006547786
0.01757812507233747
0.02343750010638554
0.02929687510948847
0.03515625007444179
0.04101562505967945
0.04687500000000003
0
0.007812500014238017
0.0156250000596519
0.02343750010638553
0.03125000015412373
0.03906250013303212
0.04687500014679593
0.05468750001073744
0.06250000000000004
0
0.009765624995799379
0.01953125004103215
0.02929687510948847
0.03906250013303211
0.04882812514334957
0.0585937500739739
0.06835937503059369
0.07812500000000001
0
0.01171874999840314
0.0234375000199346
0.03515625007444176
0.04687500014679592
0.05859375007397388
0.07031250001230424
0.08203125000510246
0.09375000000000006
0
0.01367187497821841
0.02734374999880099
0.04101562505967941
0.0546875000107374
0.06835937503059367
0.08203125000510246
0.09570312492018632
0.109375
0
0.01562500000000001
0.03125000000000002
0.04687500000000003
0.06250000000000004
0.07812500000000001
0.09375000000000006
0.109375
0.1250000000000001
0
0
0
0
0
0
0
0
0
0
0.003906249917134604
0.007812500001027107
0.01171874993974974
0.01562499997979005
0.01953124993235797
0.02343749995925257
0.02734374994940983
0.03125000000000002
0
0.007812500001027105
0.01562499996955556
0.0234375000617113
0.03125000001943013
0.03906249996703792
0.04687499997144454
0.05468749999758605
0.06250000000000004
0
0.01171874993974974
0.0234375000617113
0.03515625010371947
0.04687500010813152
0.0585937500896899
0.07031250003901113
0.08203125006129679
0.09375000000000006
0
0.01562499997979004
0.03125000001943013
0.0468750001081315
0.06250000016054767
0.07812500009022291
0.09375000011647291
0.1093749999853939
0.1250000000000001
0
0.01953124993235796
0.03906249996703792
0.05859375008968992
0.07812500009022293
0.09765625004304837
0.1171874999771115
0.1367187500056299
0.15625
0
0.02343749995925257
0.04687499997144452
0.0703125000390111
0.09375000011647291
0.1171874999771115
0.1406249999104505
0.164062499992236
0.1875000000000001
0
0.0273437499494098
0.05468749999758605
0.08203125006129676
0.1093749999853939
0.1367187500056299
0.164062499992236
0.1914062499084501
0.2187500000000001
0
0.03125000000000002
0.06250000000000004
0.09375000000000006
0.1250000000000001
0.15625
0.1875000000000001
0.2187500000000001
0.2500000000000002
0
0
0
0
0
0
0
0
0
0
0.005859374901182098
0.01171874993440374
0.017578124905535
0.02343749995509053
0.0292968749031519
0.03515624992345328
0.04101562492931284
0.04687500000000003
0
0.01171874993440374
0.02343749994358853
0.03515624999757291
0.04687499995225507
0.05859374992038197
0.07031249993606745
0.08203125000330563
0.09375000000000006
0
0.01757812490553498
0.03515624999757291
0.05273437508889844
0.07031250005651433
0.08789062505244352
0.1054687500089995
0.1230468750257297
0.140625
0
0.02343749995509052
0.04687499995225505
0.07031250005651432
0.0937500000859374
0.1171875000095439
0.1406250000398808
0.1640624999494778
0.1875000000000001
0
0.02929687490315189
0.05859374992038197
0.08789062505244358
0.117187500009544
0.146484374897652
0.1757812498855469
0.205078124941556
0.2343750000000001
0
0.0351562499234533
0.07031249993606743
0.1054687500089995
0.1406250000398807
0.1757812498855468
0.2109374998125176
0.2460937499000231
0.28125
0
0.04101562492931284
0.08203125000330563
0.1230468750257296
0.1640624999494779
0.205078124941556
0.2460937499000231
0.287109374851273
0.3281250000000001
0
0.04687500000000003
0.09375000000000006
0.140625
0.1875000000000001
0.2343750000000001
0.28125
0.3281250000000001
0.3750000000000002
0
0
0
0
0
0
0
0
0
0
0.007812499922223174
0.01562499992955972
0.02343749995012828
0.03124999995940944
0.03906249993871577
0.0468749999382037
0.05468749991395951
0.06250000000000004
0
0.01562499992955971
0.03124999993519314
0.04687499991802702
0.0624999999016676
0.07812499993917466
0.09374999994354587
0.1093750000106977
0.1250000000000001
0
0.02343749995012828
0.04687499991802702
0.07031250000637908
0.09374999997539007
0.1171875000293012
0.1406250000049755
0.1640624999716508
0.1875000000000001
0
0.03124999995940945
0.0624999999016676
0.09374999997539012
0.1249999999733155
0.156249999954467
0.1874999999826987
0.2187499999313013
0.2500000000000002
0
0.03906249993871577
0.07812499993917467
0.1171875000293012
0.1562499999544671
0.1953124998171509
0.2343749998564878
0.2734374999033412
0.3125000000000001
0
0.04687499993820374
0.09374999994354585
0.1406250000049755
0.1874999999826987
0.2343749998564877
0.2812499998169776
0.3281249998970845
0.3750000000000002
0
0.05468749991395951
0.1093750000106976
0.1640624999716507
0.2187499999313014
0.2734374999033414
0.3281249998970847
0.3828124999083488
0.4375000000000002
0
0.06250000000000004
0.1250000000000001
0.1875000000000001
0.2500000000000002
0.3125000000000001
0.3750000000000002
0.4375000000000002
0.5000000000000003
0
0
0
0
0
0
0
0
0
0
0.009765624966295445
0.0195312499483932
0.02929687500889939
0.03906249995987396
0.04882812497936335
0.0585937500080326
0.06835937494760301
0.07812500000000001
0
0.01953124994839319
0.03906249994849829
0.05859374989135036
0.07812499989797422
0.09765625000295949
0.1171875000166609
0.1367187500640536
0.15625
0
0.0292968750088994
0.05859374989135036
0.08789062496610907
0.1171874999549733
0.1464843750511249
0.1757812500748379
0.2050781249980863
0.2343750000000001
0
0.03906249995987397
0.0781249998979742
0.1171874999549733
0.1562499999350089
0.1953125000095735
0.2343750000321486
0.2734374999936804
0.3125000000000001
0
0.04882812497936335
0.09765625000295954
0.1464843750511248
0.1953125000095734
0.2441406248988262
0.2929687499353346
0.3417968749304617
0.3906250000000001
0
0.05859375000803262
0.1171875000166609
0.1757812500748378
0.2343750000321486
0.2929687499353344
0.351562499900727
0.4101562499024528
0.4687500000000002
0
0.06835937494760297
0.1367187500640536
0.2050781249980862
0.2734374999936803
0.3417968749304616
0.4101562499024529
0.4785156249945917
0.5468750000000004
0
0.07812500000000001
0.15625
0.2343750000000001
0.3125000000000001
0.3906250000000001
0.4687500000000002
0.5468750000000004
0.6250000000000001
0
0
0
0
0
0
0
0
0
0
0.01171875001377861
0.02343749995558545
0.03515625002515371
0.04687499997275193
0.05859375000359366
0.07031250004769125
0.08203124997033828
0.09375000000000006
0
0.02343749995558546
0.0468749999813936
0.07031249993977645
0.09374999995744138
0.1171875000786732
0.1406250000708788
0.1640625000772198
0.1875000000000001
0
0.03515625002515371
0.07031249993977648
0.1054687500273386
0.1406250000110122
0.1757812501058981
0.2109375001345023
0.246093750017375
0.28125
0
0.04687499997275192
0.09374999995744138
0.1406250000110122
0.1874999999815029
0.2343750001046498
0.2812500000895674
0.3281250000237332
0.3750000000000002
0
0.05859375000359371
0.1171875000786732
0.1757812501058981
0.2343750001046498
0.292968750029664
0.3515625000043022
0.4101562499543397
0.4687500000000002
0
0.07031250004769124
0.1406250000708789
0.2109375001345021
0.2812500000895674
0.3515625000043022
0.4218749999622339
0.492187499917107
0.5625
0
0.08203124997033825
0.1640625000772199
0.2460937500173749
0.3281250000237333
0.4101562499543396
0.4921874999171071
0.5742187499468135
0.6562500000000002
0
0.09375000000000006
0.1875000000000001
0.28125
0.3750000000000002
0.4687500000000002
0.5625
0.6562500000000002
0.7500000000000004
0
0
0
0
0
0
0
0
0
0
0.01367187503420063
0.02734374997134116
0.04101562502071565
0.0546875000095093
0.06835937503103195
0.08203125004605046
0.0957031249835382
0.109375
0
0.02734374997134116
0.05468750001635105
0.0820312500117783
0.1093750000390162
0.1367187501208524
0.1640625000858821
0.191406250054226
0.2187500000000001
0
0.04101562502071564
0.08203125001177826
0.1230468750959614
0.1640625000866205
0.2050781251491342
0.2460937501454629
0.2871093750296744
0.3281250000000001
0
0.05468750000950928
0.1093750000390163
0.1640625000866204
0.2187500000617649
0.2734375001702214
0.3281250001268555
0.3828125000410897
0.4375000000000002
0
0.06835937503103195
0.1367187501208523
0.2050781251491343
0.2734375001702214
0.3417968751321899
0.4101562500717402
0.4785156250017807
0.5468750000000004
0
0.08203125004605048
0.1640625000858821
0.2460937501454628
0.3281250001268554
0.4101562500717403
0.4921875000489584
0.5742187499920397
0.6562500000000002
0
0.09570312498353822
0.191406250054226
0.2871093750296742
0.3828125000410897
0.4785156250017806
0.5742187499920394
0.6699218750282204
0.7656250000000002
0
0.109375
0.2187500000000001
0.3281250000000001
0.4375000000000002
0.5468750000000004
0.6562500000000002
0.7656250000000002
0.8750000000000003
0
0
0
0
0
0
0
0
0
0
0.01562500000000001
0.03125000000000002
0.04687500000000003
0.06250000000000004
0.07812500000000001
0.09375000000000006
0.109375
0.1250000000000001
0
0.03125000000000002
0.06250000000000004
0.09375000000000006
0.1250000000000001
0.15625
0.1875000000000001
0.2187500000000001
0.2500000000000002
0
0.04687500000000003
0.09375000000000006
0.140625
0.1875000000000001
0.2343750000000001
0.28125
0.3281250000000001
0.3750000000000002
0
0.06250000000000004
0.1250000000000001
0.1875000000000001
0.2500000000000002
0.3125000000000001
0.3750000000000002
0.4375000000000002
0.5000000000000003
0
0.07812500000000001
0.15625
0.2343750000000001
0.3125000000000001
0.3906250000000001
0.4687500000000002
0.5468750000000004
0.6250000000000001
0
0.09375000000000006
0.1875000000000001
0.28125
0.3750000000000002
0.4687500000000002
0.5625
0.6562500000000002
0.7500000000000004
0
0.109375
0.2187500000000001
0.3281250000000001
0.4375000000000002
0.5468750000000004
0.6562500000000002
0.7656250000000002
0.8750000000000003
0
0.1250000000000001
0.2500000000000002
0.3750000000000002
0.5000000000000003
0.6250000000000001
0.7500000000000004
0.8750000000000003
1.000000000000001
