# vtk DataFile Version 2.0
fem_23.vtk
ASCII
DATASET UNSTRUCTURED_GRID
POINTS 81 float
0 0 0
0.125 0 0
0.25 0 0
0.375 0 0
0.5 0 0
0.625 0 0
0.75 0 0
0.875 0 0
1 0 0
0 0.125 0
0.125 0.125 0
0.25 0.125 0
0.375 0.125 0
0.5 0.125 0
0.625 0.125 0
0.75 0.125 0
0.875 0.125 0
1 0.125 0
0 0.25 0
0.125 0.25 0
0.25 0.25 0
0.375 0.25 0
0.5 0.25 0
0.625 0.25 0
0.75 0.25 0
0.875 0.25 0
1 0.25 0
0 0.375 0
0.125 0.375 0
0.25 0.375 0
0.375 0.375 0
0.5 0.375 0
0.625 0.375 0
0.75 0.375 0
0.875 0.375 0
1 0.375 0
0 0.5 0
0.125 0.5 0
0.25 0.5 0
0.375 0.5 0
0.5 0.5 0
0.625 0.5 0
0.75 0.5 0
0.875 0.5 0
1 0.5 0
0 0.625 0
0.125 0.625 0
0.25 0.625 0
0.375 0.625 0
0.5 0.625 0
0.625 0.625 0
0.75 0.625 0
0.875 0.625 0
1 0.625 0
0 0.75 0
0.125 0.75 0
0.25 0.75 0
0.375 0.75 0
0.5 0.75 0
0.625 0.75 0
0.75 0.75 0
0.875 0.75 0
1 0.75 0
0 0.875 0
0.125 0.875 0
0.25 0.875 0
0.375 0.875 0
0.5 0.875 0
0.625 0.875 0
0.75 0.875 0
0.875 0.875 0
1 0.875 0
0 1 0
0.125 1 0
0.25 1 0
0.375 1 0
0.5 1 0
0.625 1 0
0.75 1 0
0.875 1 0
1 1 0
CELLS 128 512
3 0 1 10
3 1 2 11
3 2 3 12
3 3 4 13
3 4 5 14
3 5 6 15
3 6 7 16
3 7 8 17
3 0 10 9
3 1 11 10
3 2 12 11
3 3 13 12
3 4 14 13
3 5 15 14
3 6 16 15
3 7 17 16
3 9 10 19
3 10 11 20
3 11 12 21
3 12 13 22
3 13 14 23
3 14 15 24
3 15 16 25
3 16 17 26
3 9 19 18
3 10 20 19
3 11 21 20
3 12 22 21
3 13 23 22
3 14 24 23
3 15 25 24
3 16 26 25
3 18 19 28
3 19 20 29
3 20 21 30
3 21 22 31
3 22 23 32
3 23 24 33
3 24 25 34
3 25 26 35
3 18 28 27
3 19 29 28
3 20 30 29
3 21 31 30
3 22 32 31
3 23 33 32
3 24 34 33
3 25 35 34
3 27 28 37
3 28 29 38
3 29 30 39
3 30 31 40
3 31 32 41
3 32 33 42
3 33 34 43
3 34 35 44
3 27 37 36
3 28 38 37
3 29 39 38
3 30 40 39
3 31 41 40
3 32 42 41
3 33 43 42
3 34 44 43
3 36 37 46
3 37 38 47
3 38 39 48
3 39 40 49
3 40 41 50
3 41 42 51
3 42 43 52
3 43 44 53
3 36 46 45
3 37 47 46
3 38 48 47
3 39 49 48
3 40 50 49
3 41 51 50
3 42 52 51
3 43 53 52
3 45 46 55
3 46 47 56
3 47 48 57
3 48 49 58
3 49 50 59
3 50 51 60
3 51 52 61
3 52 53 62
3 45 55 54
3 46 56 55
3 47 57 56
3 48 58 57
3 49 59 58
3 50 60 59
3 51 61 60
3 52 62 61
3 54 55 64
3 55 56 65
3 56 57 66
3 57 58 67
3 58 59 68
3 59 60 69
3 60 61 70
3 61 62 71
3 54 64 63
3 55 65 64
3 56 66 65
3 57 67 66
3 58 68 67
3 59 69 68
3 60 70 69
3 61 71 70
3 63 64 73
3 64 65 74
3 65 66 75
3 66 67 76
3 67 68 77
3 68 69 78
3 69 70 79
3 70 71 80
3 63 73 72
3 64 74 73
3 65 75 74
3 66 76 75
3 67 77 76
3 68 78 77
3 69 79 78
3 70 80 79
CELL_TYPES 128
5
5
5
5
5
5
5
5
5
5
5
5
5
5
5
5
5
5
5
5
5
5
5
5
5
5
5
5
5
5
5
5
5
5
5
5
5
5
5
5
5
5
5
5
5
5
5
5
5
5
5
5
5
5
5
5
5
5
5
5
5
5
5
5
5
5
5
5
5
5
5
5
5
5
5
5
5
5
5
5
5
5
5
5
5
5
5
5
5
5
5
5
5
5
5
5
5
5
5
5
5
5
5
5
5
5
5
5
5
5
5
5
5
5
5
5
5
5
5
5
5
5
5
5
5
5
5
5
POINT_DATA 81
SCALARS scalars float
LOOKUP_TABLE default
0
-0.01402167035874703
-0.01615459935843088
-0.01004501366440294
0.0008437974227450883
0.01333935719068801
0.02470632868546225
0.03287333353562363
0.03686900121320275
0
-0.01215354107710378
-0.01246335669225167
-0.004622126336531631
0.007852923083308372
0.02171615132969584
0.03411881202156821
0.04277150209182742
0.04607300223074193
0
-0.006504137258963024
-0.001298159975074951
0.01179194190447574
0.02909886988369156
0.04717851307433359
0.06290626597472992
0.07364586059558502
0.07750500351999987
0
0.003060152028479621
0.01760791217214121
0.03961418404605795
0.06519710142611501
0.09061776508811172
0.1123068782026575
0.1270256708156856
0.1322802906697117
0
0.01676183321321961
0.04468047258311101
0.07948478069296162
0.1170825866944836
0.1534135676127774
0.184302810945634
0.2054946537609744
0.2131898175320742
0
0.03493170822661188
0.08049236423852665
0.1321868794350292
0.1858598970638647
0.237276107737082
0.2816211442163491
0.3130853157428219
0.3251146719786975
0
0.05809763540884033
0.1257953967209388
0.1985354757568057
0.272519014388272
0.3438348220745109
0.4074453424199214
0.4557357930483424
0.4767232388421841
0
0.08728843671480396
0.1816811114786839
0.2792656124681135
0.3774708626574911
0.4737238237756773
0.5642146103339538
0.6413142751707713
0.6859316972905802
0
0.1250000000002251
0.2500000000004501
0.375000000000675
0.5000000000009003
0.6250000000011252
0.7500000000013499
0.8750000000015749
1.000000000001801
