# vtk DataFile Version 2.0
fem_29.vtk
ASCII
DATASET UNSTRUCTURED_GRID
POINTS 81 float
0 0 0
0.125 0 0
0.25 0 0
0.375 0 0
0.5 0 0
0.625 0 0
0.75 0 0
0.875 0 0
1 0 0
0 0.125 0
0.125 0.125 0
0.25 0.125 0
0.375 0.125 0
0.5 0.125 0
0.625 0.125 0
0.75 0.125 0
0.875 0.125 0
1 0.125 0
0 0.25 0
0.125 0.25 0
0.25 0.25 0
0.375 0.25 0
0.5 0.25 0
0.625 0.25 0
0.75 0.25 0
0.875 0.25 0
1 0.25 0
0 0.375 0
0.125 0.375 0
0.25 0.375 0
0.375 0.375 0
0.5 0.375 0
0.625 0.375 0
0.75 0.375 0
0.875 0.375 0
1 0.375 0
0 0.5 0
0.125 0.5 0
0.25 0.5 0
0.375 0.5 0
0.5 0.5 0
0.625 0.5 0
0.75 0.5 0
0.875 0.5 0
1 0.5 0
0 0.625 0
0.125 0.625 0
0.25 0.625 0
0.375 0.625 0
0.5 0.625 0
0.625 0.625 0
0.75 0.625 0
0.875 0.625 0
1 0.625 0
0 0.75 0
0.125 0.75 0
0.25 0.75 0
0.375 0.75 0
0.5 0.75 0
0.625 0.75 0
0.75 0.75 0
0.875 0.75 0
1 0.75 0
0 0.875 0
0.125 0.875 0
0.25 0.875 0
0.375 0.875 0
0.5 0.875 0
0.625 0.875 0
0.75 0.875 0
0.875 0.875 0
1 0.875 0
0 1 0
0.125 1 0
0.25 1 0
0.375 1 0
0.5 1 0
0.625 1 0
0.75 1 0
0.875 1 0
1 1 0
CELLS 64 320
4 0 1 10 9
4 1 2 11 10
4 9 10 19 18
4 10 11 20 19
4 2 3 12 11
4 3 4 13 12
4 11 12 21 20
4 12 13 22 21
4 4 5 14 13
4 5 6 15 14
4 13 14 23 22
4 14 15 24 23
4 6 7 16 15
4 7 8 17 16
4 15 16 25 24
4 16 17 26 25
4 18 19 28 27
4 19 20 29 28
4 27 28 37 36
4 28 29 38 37
4 20 21 30 29
4 21 22 31 30
4 29 30 39 38
4 30 31 40 39
4 22 23 32 31
4 23 24 33 32
4 31 32 41 40
4 32 33 42 41
4 24 25 34 33
4 25 26 35 34
4 33 34 43 42
4 34 35 44 43
4 36 37 46 45
4 37 38 47 46
4 45 46 55 54
4 46 47 56 55
4 38 39 48 47
4 39 40 49 48
4 47 48 57 56
4 48 49 58 57
4 40 41 50 49
4 41 42 51 50
4 49 50 59 58
4 50 51 60 59
4 42 43 52 51
4 43 44 53 52
4 51 52 61 60
4 52 53 62 61
4 54 55 64 63
4 55 56 65 64
4 63 64 73 72
4 64 65 74 73
4 56 57 66 65
4 57 58 67 66
4 65 66 75 74
4 66 67 76 75
4 58 59 68 67
4 59 60 69 68
4 67 68 77 76
4 68 69 78 77
4 60 61 70 69
4 61 62 71 70
4 69 70 79 78
4 70 71 80 79
CELL_TYPES 64
9
9
9
9
9
9
9
9
9
9
9
9
9
9
9
9
9
9
9
9
9
9
9
9
9
9
9
9
9
9
9
9
9
9
9
9
9
9
9
9
9
9
9
9
9
9
9
9
9
9
9
9
9
9
9
9
9
9
9
9
9
9
9
9
POINT_DATA 81
SCALARS scalars float
LOOKUP_TABLE default
0
-0.01472755695609179
-0.01757389090773174
-0.0122000745256686
-0.002066829928782096
0.009637882594171072
0.02019597995222662
0.02743927259035371
0.03002390443577801
0
-0.01284813963298399
-0.01385950447546542
-0.006741718208688948
0.004988002809189837
0.01807513866266004
0.02971498030339078
0.03765717015213138
0.04048093646864877
0
-0.00716320289821205
-0.002620555101611708
0.009784747796083373
0.02637926511173205
0.04369962052087835
0.05869733996226603
0.06880463869966483
0.07240300915618461
0
0.00245354483256371
0.01639971738595481
0.03779036612339096
0.06270905698346219
0.08738299917578574
0.1082778979141473
0.1222974380283449
0.127251622762526
0
0.01622250553882254
0.04362520754054856
0.07791877976180731
0.114950029868535
0.1505302529242826
0.1805758620059795
0.2006924909881896
0.2081278414514677
0
0.03444551640615884
0.07960597048142555
0.1309467826381015
0.1841888276696349
0.2349958362279339
0.2782056840875004
0.3081940688098279
0.3190519193509697
0
0.05768477501825463
0.1250882971192581
0.1976728000874031
0.2714508487968719
0.3423163323143873
0.4053583431775467
0.4500605271151923
0.4711361847886884
0
0.08680303092542668
0.1812769560351158
0.2788154678542988
0.3769280221866337
0.4730725249930425
0.5625810464575008
0.6389632931314142
0.6707061445337457
0
0.1249999999994179
0.2499999999988358
0.3749999999982536
0.4999999999976715
0.6249999999970891
0.7499999999965072
0.874999999995925
0.9999999999953431
