# vtk DataFile Version 2.0
fem_24.vtk
ASCII
DATASET UNSTRUCTURED_GRID
POINTS 81 float
0 0 0
0.125 0 0
0.25 0 0
0.375 0 0
0.5 0 0
0.625 0 0
0.75 0 0
0.875 0 0
1 0 0
0 0.125 0
0.125 0.125 0
0.25 0.125 0
0.375 0.125 0
0.5 0.125 0
0.625 0.125 0
0.75 0.125 0
0.875 0.125 0
1 0.125 0
0 0.25 0
0.125 0.25 0
0.25 0.25 0
0.375 0.25 0
0.5 0.25 0
0.625 0.25 0
0.75 0.25 0
0.875 0.25 0
1 0.25 0
0 0.375 0
0.125 0.375 0
0.25 0.375 0
0.375 0.375 0
0.5 0.375 0
0.625 0.375 0
0.75 0.375 0
0.875 0.375 0
1 0.375 0
0 0.5 0
0.125 0.5 0
0.25 0.5 0
0.375 0.5 0
0.5 0.5 0
0.625 0.5 0
0.75 0.5 0
0.875 0.5 0
1 0.5 0
0 0.625 0
0.125 0.625 0
0.25 0.625 0
0.375 0.625 0
0.5 0.625 0
0.625 0.625 0
0.75 0.625 0
0.875 0.625 0
1 0.625 0
0 0.75 0
0.125 0.75 0
0.25 0.75 0
0.375 0.75 0
0.5 0.75 0
0.625 0.75 0
0.75 0.75 0
0.875 0.75 0
1 0.75 0
0 0.875 0
0.125 0.875 0
0.25 0.875 0
0.375 0.875 0
0.5 0.875 0
0.625 0.875 0
0.75 0.875 0
0.875 0.875 0
1 0.875 0
0 1 0
0.125 1 0
0.25 1 0
0.375 1 0
0.5 1 0
0.625 1 0
0.75 1 0
0.875 1 0
1 1 0
CELLS 64 320
4 0 1 10 9
4 1 2 11 10
4 2 3 12 11
4 3 4 13 12
4 4 5 14 13
4 5 6 15 14
4 6 7 16 15
4 7 8 17 16
4 9 10 19 18
4 10 11 20 19
4 11 12 21 20
4 12 13 22 21
4 13 14 23 22
4 14 15 24 23
4 15 16 25 24
4 16 17 26 25
4 18 19 28 27
4 19 20 29 28
4 20 21 30 29
4 21 22 31 30
4 22 23 32 31
4 23 24 33 32
4 24 25 34 33
4 25 26 35 34
4 27 28 37 36
4 28 29 38 37
4 29 30 39 38
4 30 31 40 39
4 31 32 41 40
4 32 33 42 41
4 33 34 43 42
4 34 35 44 43
4 36 37 46 45
4 37 38 47 46
4 38 39 48 47
4 39 40 49 48
4 40 41 50 49
4 41 42 51 50
4 42 43 52 51
4 43 44 53 52
4 45 46 55 54
4 46 47 56 55
4 47 48 57 56
4 48 49 58 57
4 49 50 59 58
4 50 51 60 59
4 51 52 61 60
4 52 53 62 61
4 54 55 64 63
4 55 56 65 64
4 56 57 66 65
4 57 58 67 66
4 58 59 68 67
4 59 60 69 68
4 60 61 70 69
4 61 62 71 70
4 63 64 73 72
4 64 65 74 73
4 65 66 75 74
4 66 67 76 75
4 67 68 77 76
4 68 69 78 77
4 69 70 79 78
4 70 71 80 79
CELL_TYPES 64
9
9
9
9
9
9
9
9
9
9
9
9
9
9
9
9
9
9
9
9
9
9
9
9
9
9
9
9
9
9
9
9
9
9
9
9
9
9
9
9
9
9
9
9
9
9
9
9
9
9
9
9
9
9
9
9
9
9
9
9
9
9
9
9
POINT_DATA 81
SCALARS scalars float
LOOKUP_TABLE default
0
-0.01494591116368559
-0.01801603720752675
-0.01287046979829293
-0.002980911741008736
0.00848817891669271
0.01882265900173045
0.02591884811892117
0.02843772013826567
0
-0.01305699332418779
-0.01428113275376618
-0.007380332251537239
0.004115560316337157
0.01696977035957715
0.02838401131385197
0.03617084085275015
0.03892785072820434
0
-0.007348744236873477
-0.002989121238143978
0.009233547187538306
0.02562090721906196
0.04271879261955334
0.05746396523834384
0.06739403538344375
0.07089263688341996
0
0.002300157213707282
0.01611213620416624
0.03738339204570901
0.06216196796013316
0.08663955951281635
0.1072695990340905
0.1210401128276699
0.1258782661763939
0
0.01608644376246386
0.04341554321175038
0.0776908716802806
0.114696284124308
0.1501873893053859
0.1798725706017506
0.1997153667855649
0.2067094624866227
0
0.03429751413084374
0.07944119931888532
0.1308876313336991
0.184303819249525
0.2351906419003881
0.2782396720579305
0.3075732233749187
0.318015027688651
0
0.05740769191118101
0.1249042348502834
0.197714663668125
0.2718094345508391
0.343128637449849
0.4061623278951316
0.4509622191221814
0.4677841402945472
0
0.08643672375954339
0.1810568632066606
0.2788665914600512
0.3773225353867641
0.4739359559810428
0.5649397126336657
0.6422035608050298
0.6696550879653015
0
0.1249999999999689
0.2499999999999378
0.3749999999999069
0.4999999999998756
0.6249999999998447
0.7499999999998137
0.8749999999997826
0.9999999999997512
