# vtk DataFile Version 2.0
fem_35.vtk
ASCII
DATASET UNSTRUCTURED_GRID
POINTS 729 float
0 0 0
0.125 0 0
0.25 0 0
0.375 0 0
0.5 0 0
0.625 0 0
0.75 0 0
0.875 0 0
1 0 0
0 0.125 0
0.125 0.125 0
0.25 0.125 0
0.375 0.125 0
0.5 0.125 0
0.625 0.125 0
0.75 0.125 0
0.875 0.125 0
1 0.125 0
0 0.25 0
0.125 0.25 0
0.25 0.25 0
0.375 0.25 0
0.5 0.25 0
0.625 0.25 0
0.75 0.25 0
0.875 0.25 0
1 0.25 0
0 0.375 0
0.125 0.375 0
0.25 0.375 0
0.375 0.375 0
0.5 0.375 0
0.625 0.375 0
0.75 0.375 0
0.875 0.375 0
1 0.375 0
0 0.5 0
0.125 0.5 0
0.25 0.5 0
0.375 0.5 0
0.5 0.5 0
0.625 0.5 0
0.75 0.5 0
0.875 0.5 0
1 0.5 0
0 0.625 0
0.125 0.625 0
0.25 0.625 0
0.375 0.625 0
0.5 0.625 0
0.625 0.625 0
0.75 0.625 0
0.875 0.625 0
1 0.625 0
0 0.75 0
0.125 0.75 0
0.25 0.75 0
0.375 0.75 0
0.5 0.75 0
0.625 0.75 0
0.75 0.75 0
0.875 0.75 0
1 0.75 0
0 0.875 0
0.125 0.875 0
0.25 0.875 0
0.375 0.875 0
0.5 0.875 0
0.625 0.875 0
0.75 0.875 0
0.875 0.875 0
1 0.875 0
0 1 0
0.125 1 0
0.25 1 0
0.375 1 0
0.5 1 0
0.625 1 0
0.75 1 0
0.875 1 0
1 1 0
0 0 0.125
0.125 0 0.125
0.25 0 0.125
0.375 0 0.125
0.5 0 0.125
0.625 0 0.125
0.75 0 0.125
0.875 0 0.125
1 0 0.125
0 0.125 0.125
0.125 0.125 0.125
0.25 0.125 0.125
0.375 0.125 0.125
0.5 0.125 0.125
0.625 0.125 0.125
0.75 0.125 0.125
0.875 0.125 0.125
1 0.125 0.125
0 0.25 0.125
0.125 0.25 0.125
0.25 0.25 0.125
0.375 0.25 0.125
0.5 0.25 0.125
0.625 0.25 0.125
0.75 0.25 0.125
0.875 0.25 0.125
1 0.25 0.125
0 0.375 0.125
0.125 0.375 0.125
0.25 0.375 0.125
0.375 0.375 0.125
0.5 0.375 0.125
0.625 0.375 0.125
0.75 0.375 0.125
0.875 0.375 0.125
1 0.375 0.125
0 0.5 0.125
0.125 0.5 0.125
0.25 0.5 0.125
0.375 0.5 0.125
0.5 0.5 0.125
0.625 0.5 0.125
0.75 0.5 0.125
0.875 0.5 0.125
1 0.5 0.125
0 0.625 0.125
0.125 0.625 0.125
0.25 0.625 0.125
0.375 0.625 0.125
0.5 0.625 0.125
0.625 0.625 0.125
0.75 0.625 0.125
0.875 0.625 0.125
1 0.625 0.125
0 0.75 0.125
0.125 0.75 0.125
0.25 0.75 0.125
0.375 0.75 0.125
0.5 0.75 0.125
0.625 0.75 0.125
0.75 0.75 0.125
0.875 0.75 0.125
1 0.75 0.125
0 0.875 0.125
0.125 0.875 0.125
0.25 0.875 0.125
0.375 0.875 0.125
0.5 0.875 0.125
0.625 0.875 0.125
0.75 0.875 0.125
0.875 0.875 0.125
1 0.875 0.125
0 1 0.125
0.125 1 0.125
0.25 1 0.125
0.375 1 0.125
0.5 1 0.125
0.625 1 0.125
0.75 1 0.125
0.875 1 0.125
1 1 0.125
0 0 0.25
0.125 0 0.25
0.25 0 0.25
0.375 0 0.25
0.5 0 0.25
0.625 0 0.25
0.75 0 0.25
0.875 0 0.25
1 0 0.25
0 0.125 0.25
0.125 0.125 0.25
0.25 0.125 0.25
0.375 0.125 0.25
0.5 0.125 0.25
0.625 0.125 0.25
0.75 0.125 0.25
0.875 0.125 0.25
1 0.125 0.25
0 0.25 0.25
0.125 0.25 0.25
0.25 0.25 0.25
0.375 0.25 0.25
0.5 0.25 0.25
0.625 0.25 0.25
0.75 0.25 0.25
0.875 0.25 0.25
1 0.25 0.25
0 0.375 0.25
0.125 0.375 0.25
0.25 0.375 0.25
0.375 0.375 0.25
0.5 0.375 0.25
0.625 0.375 0.25
0.75 0.375 0.25
0.875 0.375 0.25
1 0.375 0.25
0 0.5 0.25
0.125 0.5 0.25
0.25 0.5 0.25
0.375 0.5 0.25
0.5 0.5 0.25
0.625 0.5 0.25
0.75 0.5 0.25
0.875 0.5 0.25
1 0.5 0.25
0 0.625 0.25
0.125 0.625 0.25
0.25 0.625 0.25
0.375 0.625 0.25
0.5 0.625 0.25
0.625 0.625 0.25
0.75 0.625 0.25
0.875 0.625 0.25
1 0.625 0.25
0 0.75 0.25
0.125 0.75 0.25
0.25 0.75 0.25
0.375 0.75 0.25
0.5 0.75 0.25
0.625 0.75 0.25
0.75 0.75 0.25
0.875 0.75 0.25
1 0.75 0.25
0 0.875 0.25
0.125 0.875 0.25
0.25 0.875 0.25
0.375 0.875 0.25
0.5 0.875 0.25
0.625 0.875 0.25
0.75 0.875 0.25
0.875 0.875 0.25
1 0.875 0.25
0 1 0.25
0.125 1 0.25
0.25 1 0.25
0.375 1 0.25
0.5 1 0.25
0.625 1 0.25
0.75 1 0.25
0.875 1 0.25
1 1 0.25
0 0 0.375
0.125 0 0.375
0.25 0 0.375
0.375 0 0.375
0.5 0 0.375
0.625 0 0.375
0.75 0 0.375
0.875 0 0.375
1 0 0.375
0 0.125 0.375
0.125 0.125 0.375
0.25 0.125 0.375
0.375 0.125 0.375
0.5 0.125 0.375
0.625 0.125 0.375
0.75 0.125 0.375
0.875 0.125 0.375
1 0.125 0.375
0 0.25 0.375
0.125 0.25 0.375
0.25 0.25 0.375
0.375 0.25 0.375
0.5 0.25 0.375
0.625 0.25 0.375
0.75 0.25 0.375
0.875 0.25 0.375
1 0.25 0.375
0 0.375 0.375
0.125 0.375 0.375
0.25 0.375 0.375
0.375 0.375 0.375
0.5 0.375 0.375
0.625 0.375 0.375
0.75 0.375 0.375
0.875 0.375 0.375
1 0.375 0.375
0 0.5 0.375
0.125 0.5 0.375
0.25 0.5 0.375
0.375 0.5 0.375
0.5 0.5 0.375
0.625 0.5 0.375
0.75 0.5 0.375
0.875 0.5 0.375
1 0.5 0.375
0 0.625 0.375
0.125 0.625 0.375
0.25 0.625 0.375
0.375 0.625 0.375
0.5 0.625 0.375
0.625 0.625 0.375
0.75 0.625 0.375
0.875 0.625 0.375
1 0.625 0.375
0 0.75 0.375
0.125 0.75 0.375
0.25 0.75 0.375
0.375 0.75 0.375
0.5 0.75 0.375
0.625 0.75 0.375
0.75 0.75 0.375
0.875 0.75 0.375
1 0.75 0.375
0 0.875 0.375
0.125 0.875 0.375
0.25 0.875 0.375
0.375 0.875 0.375
0.5 0.875 0.375
0.625 0.875 0.375
0.75 0.875 0.375
0.875 0.875 0.375
1 0.875 0.375
0 1 0.375
0.125 1 0.375
0.25 1 0.375
0.375 1 0.375
0.5 1 0.375
0.625 1 0.375
0.75 1 0.375
0.875 1 0.375
1 1 0.375
0 0 0.5
0.125 0 0.5
0.25 0 0.5
0.375 0 0.5
0.5 0 0.5
0.625 0 0.5
0.75 0 0.5
0.875 0 0.5
1 0 0.5
0 0.125 0.5
0.125 0.125 0.5
0.25 0.125 0.5
0.375 0.125 0.5
0.5 0.125 0.5
0.625 0.125 0.5
0.75 0.125 0.5
0.875 0.125 0.5
1 0.125 0.5
0 0.25 0.5
0.125 0.25 0.5
0.25 0.25 0.5
0.375 0.25 0.5
0.5 0.25 0.5
0.625 0.25 0.5
0.75 0.25 0.5
0.875 0.25 0.5
1 0.25 0.5
0 0.375 0.5
0.125 0.375 0.5
0.25 0.375 0.5
0.375 0.375 0.5
0.5 0.375 0.5
0.625 0.375 0.5
0.75 0.375 0.5
0.875 0.375 0.5
1 0.375 0.5
0 0.5 0.5
0.125 0.5 0.5
0.25 0.5 0.5
0.375 0.5 0.5
0.5 0.5 0.5
0.625 0.5 0.5
0.75 0.5 0.5
0.875 0.5 0.5
1 0.5 0.5
0 0.625 0.5
0.125 0.625 0.5
0.25 0.625 0.5
0.375 0.625 0.5
0.5 0.625 0.5
0.625 0.625 0.5
0.75 0.625 0.5
0.875 0.625 0.5
1 0.625 0.5
0 0.75 0.5
0.125 0.75 0.5
0.25 0.75 0.5
0.375 0.75 0.5
0.5 0.75 0.5
0.625 0.75 0.5
0.75 0.75 0.5
0.875 0.75 0.5
1 0.75 0.5
0 0.875 0.5
0.125 0.875 0.5
0.25 0.875 0.5
0.375 0.875 0.5
0.5 0.875 0.5
0.625 0.875 0.5
0.75 0.875 0.5
0.875 0.875 0.5
1 0.875 0.5
0 1 0.5
0.125 1 0.5
0.25 1 0.5
0.375 1 0.5
0.5 1 0.5
0.625 1 0.5
0.75 1 0.5
0.875 1 0.5
1 1 0.5
0 0 0.625
0.125 0 0.625
0.25 0 0.625
0.375 0 0.625
0.5 0 0.625
0.625 0 0.625
0.75 0 0.625
0.875 0 0.625
1 0 0.625
0 0.125 0.625
0.125 0.125 0.625
0.25 0.125 0.625
0.375 0.125 0.625
0.5 0.125 0.625
0.625 0.125 0.625
0.75 0.125 0.625
0.875 0.125 0.625
1 0.125 0.625
0 0.25 0.625
0.125 0.25 0.625
0.25 0.25 0.625
0.375 0.25 0.625
0.5 0.25 0.625
0.625 0.25 0.625
0.75 0.25 0.625
0.875 0.25 0.625
1 0.25 0.625
0 0.375 0.625
0.125 0.375 0.625
0.25 0.375 0.625
0.375 0.375 0.625
0.5 0.375 0.625
0.625 0.375 0.625
0.75 0.375 0.625
0.875 0.375 0.625
1 0.375 0.625
0 0.5 0.625
0.125 0.5 0.625
0.25 0.5 0.625
0.375 0.5 0.625
0.5 0.5 0.625
0.625 0.5 0.625
0.75 0.5 0.625
0.875 0.5 0.625
1 0.5 0.625
0 0.625 0.625
0.125 0.625 0.625
0.25 0.625 0.625
0.375 0.625 0.625
0.5 0.625 0.625
0.625 0.625 0.625
0.75 0.625 0.625
0.875 0.625 0.625
1 0.625 0.625
0 0.75 0.625
0.125 0.75 0.625
0.25 0.75 0.625
0.375 0.75 0.625
0.5 0.75 0.625
0.625 0.75 0.625
0.75 0.75 0.625
0.875 0.75 0.625
1 0.75 0.625
0 0.875 0.625
0.125 0.875 0.625
0.25 0.875 0.625
0.375 0.875 0.625
0.5 0.875 0.625
0.625 0.875 0.625
0.75 0.875 0.625
0.875 0.875 0.625
1 0.875 0.625
0 1 0.625
0.125 1 0.625
0.25 1 0.625
0.375 1 0.625
0.5 1 0.625
0.625 1 0.625
0.75 1 0.625
0.875 1 0.625
1 1 0.625
0 0 0.75
0.125 0 0.75
0.25 0 0.75
0.375 0 0.75
0.5 0 0.75
0.625 0 0.75
0.75 0 0.75
0.875 0 0.75
1 0 0.75
0 0.125 0.75
0.125 0.125 0.75
0.25 0.125 0.75
0.375 0.125 0.75
0.5 0.125 0.75
0.625 0.125 0.75
0.75 0.125 0.75
0.875 0.125 0.75
1 0.125 0.75
0 0.25 0.75
0.125 0.25 0.75
0.25 0.25 0.75
0.375 0.25 0.75
0.5 0.25 0.75
0.625 0.25 0.75
0.75 0.25 0.75
0.875 0.25 0.75
1 0.25 0.75
0 0.375 0.75
0.125 0.375 0.75
0.25 0.375 0.75
0.375 0.375 0.75
0.5 0.375 0.75
0.625 0.375 0.75
0.75 0.375 0.75
0.875 0.375 0.75
1 0.375 0.75
0 0.5 0.75
0.125 0.5 0.75
0.25 0.5 0.75
0.375 0.5 0.75
0.5 0.5 0.75
0.625 0.5 0.75
0.75 0.5 0.75
0.875 0.5 0.75
1 0.5 0.75
0 0.625 0.75
0.125 0.625 0.75
0.25 0.625 0.75
0.375 0.625 0.75
0.5 0.625 0.75
0.625 0.625 0.75
0.75 0.625 0.75
0.875 0.625 0.75
1 0.625 0.75
0 0.75 0.75
0.125 0.75 0.75
0.25 0.75 0.75
0.375 0.75 0.75
0.5 0.75 0.75
0.625 0.75 0.75
0.75 0.75 0.75
0.875 0.75 0.75
1 0.75 0.75
0 0.875 0.75
0.125 0.875 0.75
0.25 0.875 0.75
0.375 0.875 0.75
0.5 0.875 0.75
0.625 0.875 0.75
0.75 0.875 0.75
0.875 0.875 0.75
1 0.875 0.75
0 1 0.75
0.125 1 0.75
0.25 1 0.75
0.375 1 0.75
0.5 1 0.75
0.625 1 0.75
0.75 1 0.75
0.875 1 0.75
1 1 0.75
0 0 0.875
0.125 0 0.875
0.25 0 0.875
0.375 0 0.875
0.5 0 0.875
0.625 0 0.875
0.75 0 0.875
0.875 0 0.875
1 0 0.875
0 0.125 0.875
0.125 0.125 0.875
0.25 0.125 0.875
0.375 0.125 0.875
0.5 0.125 0.875
0.625 0.125 0.875
0.75 0.125 0.875
0.875 0.125 0.875
1 0.125 0.875
0 0.25 0.875
0.125 0.25 0.875
0.25 0.25 0.875
0.375 0.25 0.875
0.5 0.25 0.875
0.625 0.25 0.875
0.75 0.25 0.875
0.875 0.25 0.875
1 0.25 0.875
0 0.375 0.875
0.125 0.375 0.875
0.25 0.375 0.875
0.375 0.375 0.875
0.5 0.375 0.875
0.625 0.375 0.875
0.75 0.375 0.875
0.875 0.375 0.875
1 0.375 0.875
0 0.5 0.875
0.125 0.5 0.875
0.25 0.5 0.875
0.375 0.5 0.875
0.5 0.5 0.875
0.625 0.5 0.875
0.75 0.5 0.875
0.875 0.5 0.875
1 0.5 0.875
0 0.625 0.875
0.125 0.625 0.875
0.25 0.625 0.875
0.375 0.625 0.875
0.5 0.625 0.875
0.625 0.625 0.875
0.75 0.625 0.875
0.875 0.625 0.875
1 0.625 0.875
0 0.75 0.875
0.125 0.75 0.875
0.25 0.75 0.875
0.375 0.75 0.875
0.5 0.75 0.875
0.625 0.75 0.875
0.75 0.75 0.875
0.875 0.75 0.875
1 0.75 0.875
0 0.875 0.875
0.125 0.875 0.875
0.25 0.875 0.875
0.375 0.875 0.875
0.5 0.875 0.875
0.625 0.875 0.875
0.75 0.875 0.875
0.875 0.875 0.875
1 0.875 0.875
0 1 0.875
0.125 1 0.875
0.25 1 0.875
0.375 1 0.875
0.5 1 0.875
0.625 1 0.875
0.75 1 0.875
0.875 1 0.875
1 1 0.875
0 0 1
0.125 0 1
0.25 0 1
0.375 0 1
0.5 0 1
0.625 0 1
0.75 0 1
0.875 0 1
1 0 1
0 0.125 1
0.125 0.125 1
0.25 0.125 1
0.375 0.125 1
0.5 0.125 1
0.625 0.125 1
0.75 0.125 1
0.875 0.125 1
1 0.125 1
0 0.25 1
0.125 0.25 1
0.25 0.25 1
0.375 0.25 1
0.5 0.25 1
0.625 0.25 1
0.75 0.25 1
0.875 0.25 1
1 0.25 1
0 0.375 1
0.125 0.375 1
0.25 0.375 1
0.375 0.375 1
0.5 0.375 1
0.625 0.375 1
0.75 0.375 1
0.875 0.375 1
1 0.375 1
0 0.5 1
0.125 0.5 1
0.25 0.5 1
0.375 0.5 1
0.5 0.5 1
0.625 0.5 1
0.75 0.5 1
0.875 0.5 1
1 0.5 1
0 0.625 1
0.125 0.625 1
0.25 0.625 1
0.375 0.625 1
0.5 0.625 1
0.625 0.625 1
0.75 0.625 1
0.875 0.625 1
1 0.625 1
[...]
POINT_DATA 729
SCALARS scalars float
LOOKUP_TABLE default
0
0
0
0
0
0
0
0
0
0
0
0
0
0
0
0
0
0
0
0
0
0
0
0
0
0
0
0
0
0
0
0
0
0
0
0
0
0
0
0
0
0
0
0
0
0
0
0
0
0
0
0
0
0
0
0
0
0
0
0
0
0
0
0
0
0
0
0
0
0
0
0
0
0
0
0
0
0
0
0
0
0
0
0
0
0
0
0
0
0
0
0.001793577592713541
0.003615479181017526
0.005457710553325557
0.007378277201109875
0.00933754881191283
0.01139315992438172
0.01348563259909085
0.01562500000000004
0
0.003615479181017525
0.00725862872020905
0.01098787512734581
0.01479604439437639
0.01875431720446637
0.02281381985608371
0.02700645484372856
0.03125000000000008
0
0.005457710553325557
0.01098787512734581
0.01656516706588467
0.02234368347202926
0.02821425241564762
0.03433403812255021
0.04054350215089742
0.04687500000000015
0
0.007378277201109873
0.01479604439437639
0.02234368347202927
0.03000521191621116
0.03789568139551348
0.04593468401469841
0.05417948462542956
0.06250000000000017
0
0.009337548811912831
0.01875431720446637
0.02821425241564762
0.03789568139551348
0.04766561897909665
0.05771308247540252
0.06785040588133127
0.07812500000000022
0
0.01139315992438172
0.02281381985608371
0.0343340381225502
0.04593468401469841
0.05771308247540252
0.06959855906938778
0.08164652325796919
0.09375000000000029
0
0.01348563259909085
0.02700645484372855
0.04054350215089742
0.05417948462542953
0.06785040588133127
0.08164652325796917
0.09547951656850866
0.1093750000000003
0
0.01562500000000004
0.03125000000000008
0.04687500000000015
0.06250000000000017
0.07812500000000022
0.09375000000000029
0.1093750000000003
0.1250000000000003
0
0
0
0
0
0
0
0
0
0
0.003553912150683573
0.007155478951382948
0.01082659873987616
0.01463574905110877
0.01857072988441327
0.02268784144059589
0.02692180615415278
0.03125000000000008
0
0.00715547895138295
0.01434334479518718
0.0217732507989718
0.02930822316953127
0.0372704944128702
0.0453904125464071
0.05390109144405877
0.06250000000000017
0
0.01082659873987616
0.02177325079897179
0.03289248450723761
0.04436206671924478
0.05614792360754494
0.06840166875919364
0.08095354490449538
0.09375000000000029
0
0.01463574905110876
0.02930822316953127
0.04436206671924479
0.05954415681290991
0.0754063290113102
0.09147626251863196
0.1081771970873672
0.1250000000000003
0
0.01857072988441327
0.0372704944128702
0.05614792360754494
0.07540632901131014
0.09499787590282997
0.1151081748074267
0.1355411626163363
0.1562500000000004
0
0.0226878414405959
0.04539041254640708
0.06840166875919367
0.09147626251863196
0.1151081748074267
0.1388611509178347
0.163141859374829
0.1875000000000006
0
0.02692180615415279
0.05390109144405874
0.0809535449044954
0.1081771970873672
0.1355411626163362
0.1631418593748289
0.190882045015502
0.2187500000000006
0
0.03125000000000008
0.06250000000000017
0.09375000000000029
0.1250000000000003
0.1562500000000004
0.1875000000000006
0.2187500000000006
0.2500000000000007
0
0
0
0
0
0
0
0
0
0
0.005218824629359703
0.01053996366535622
0.01593700701719251
0.02163279252719637
0.02749231165566346
0.03375917766530197
0.04020679554687297
0.04687500000000015
0
0.01053996366535622
0.02118150866541359
0.03214159016555859
0.04341114844134477
0.05529001873244803
0.06761609950042381
0.08055528624587151
0.09375000000000029
0
0.01593700701719251
0.03214159016555859
0.04851742378412043
0.06567938478119965
0.08322989153790576
0.1018649899396901
0.1209480078244608
0.1406250000000004
0
0.02163279252719637
0.04341114844134476
0.06567938478119967
0.08840007957245527
0.1120762376099687
0.1364274815791285
0.1617651626414013
0.1875000000000006
0
0.02749231165566346
0.05529001873244804
0.08322989153790576
0.1120762376099688
0.1412853491923945
0.1717716863246296
0.2027161220949828
0.2343750000000007
0
0.03375917766530197
0.06761609950042381
0.1018649899396901
0.1364274815791285
0.1717716863246297
0.2076068751857037
0.2442774037898225
0.2812500000000009
0
0.04020679554687297
0.08055528624587149
0.1209480078244608
0.1617651626414013
0.2027161220949828
0.2442774037898225
0.2860264498459883
0.3281250000000007
0
0.04687500000000015
0.09375000000000029
0.1406250000000004
0.1875000000000006
0.2343750000000007
0.2812500000000009
0.3281250000000007
0.3750000000000012
0
0
0
0
0
0
0
0
0
0
0.006764381752476069
0.01364814298574681
0.02071586799825595
0.02816327436317161
0.03599122243179584
0.04441623630092927
0.05326994451304238
0.06250000000000017
0
0.01364814298574682
0.02737909496331137
0.04173590089935065
0.05640367795816024
0.07231956518682474
0.0888165587270881
0.1067052624530341
0.1250000000000003
0
0.02071586799825595
0.04173590089935065
0.06321928030807378
0.08568368837107174
0.1091293911444298
0.1341550308182885
0.1603182916443549
0.1875000000000006
0
0.02816327436317161
0.05640367795816025
0.08568368837107172
0.1153158914655864
0.14705056843355
0.179563651934079
0.2144816181692397
0.2500000000000007
0
0.03599122243179585
0.07231956518682474
0.1091293911444298
0.14705056843355
0.1860421708524869
0.2268980611541745
0.2690728850960531
0.3125000000000009
0
0.04441623630092927
0.0888165587270881
0.1341550308182884
0.1795636519340789
0.2268980611541745
0.2746099040458103
0.324612153474485
0.3750000000000012
0
0.05326994451304237
0.1067052624530341
0.160318291644355
0.2144816181692397
0.269072885096053
0.3246121534744849
0.3807261348195624
0.4375000000000013
0
0.06250000000000017
0.1250000000000003
0.1875000000000006
0.2500000000000007
0.3125000000000009
0.3750000000000012
0.4375000000000013
0.5000000000000013
0
0
0
0
0
0
0
0
0
0
0.008071088175564033
0.01635646504303929
0.02481042941604266
0.03395371828587373
0.04355497144597071
0.05432942018672603
0.06580174669407812
0.07812500000000022
0
0.0163564650430393
0.03293248255727625
0.05020512809617526
0.06822818373155999
0.08784865980331301
0.1088469407308066
0.1319954845633377
0.1562500000000004
0
0.02481042941604267
0.05020512809617526
0.07595626537822185
0.1035991987024875
0.1323292857100913
0.1643325850281793
0.1981446778781072
0.2343750000000007
0
0.03395371828587373
0.06822818373155996
0.1035991987024875
0.1401062728785362
0.1792218344443939
0.2205535339569286
0.2655802141918264
0.3125000000000009
0
0.04355497144597072
0.08784865980331302
0.1323292857100913
0.1792218344443939
0.2270352493693932
0.27915189259168
0.3332329829909462
0.3906250000000011
0
0.05432942018672605
0.1088469407308066
0.1643325850281793
0.2205535339569287
0.2791518925916801
0.3394050173102945
0.403265739309144
0.4687500000000014
0
0.06580174669407811
0.1319954845633377
0.1981446778781072
0.2655802141918265
0.3332329829909462
0.4032657393091439
0.4740944084402045
0.5468750000000016
0
0.07812500000000022
0.1562500000000004
0.2343750000000007
0.3125000000000009
0.3906250000000011
0.4687500000000014
0.5468750000000016
0.6250000000000018
0
0
0
0
0
0
0
0
0
0
0.009130153671265963
0.01847259390542261
0.02816789059590693
0.03863391963996402
0.04999778696411001
0.06300774369828879
0.07752440599028416
0.09375000000000029
0
0.01847259390542261
0.03709714234015614
0.05687907174623229
0.07735802178715978
0.1006014361630889
0.1256785026875715
0.1555173196855885
0.1875000000000006
0
0.02816789059590693
0.05687907174623227
0.08650309387209802
0.1181500239461071
0.1522043154336665
0.1907733101978693
0.2335694960005366
0.2812500000000009
0
0.03863391963996402
0.07735802178715979
0.1181500239461072
0.1596629262338521
0.2061636787284727
0.2552946657589739
0.3133201111159374
0.3750000000000012
0
0.04999778696411
0.1006014361630889
0.1522043154336665
0.2061636787284726
0.2629788520313757
0.3255395405518826
0.3937163740850098
0.4687500000000014
0
0.06300774369828879
0.1256785026875715
0.1907733101978693
0.255294665758974
0.3255395405518826
0.3965139943557457
0.478100791945101
0.5625000000000018
0
0.07752440599028416
0.1555173196855885
0.2335694960005366
0.3133201111159374
0.3937163740850097
0.4781007919451008
0.5647460425961904
0.6562500000000014
0
0.09375000000000029
0.1875000000000006
0.2812500000000009
0.3750000000000012
0.4687500000000014
0.5625000000000018
0.6562500000000014
0.7500000000000023
0
0
0
0
0
0
0
0
0
0
0.00976444082304247
0.01985236008409898
0.03021020656263693
0.04171463745570529
0.0541709596904162
0.06934271090079869
0.08716290042231417
0.1093750000000003
0
0.01985236008409898
0.04004888853942016
0.06134705996557293
0.08396634642876627
0.109766949428772
0.1389125556121366
0.1757635990343533
0.2187500000000006
0
0.03021020656263692
0.06134705996557292
0.09299896004756739
0.1279384879179827
0.1651498926421965
0.2102518912163458
0.2626817995817315
0.3281250000000007
0
0.0417146374557053
0.08396634642876628
0.1279384879179827
0.1740526865627127
0.2254952821578617
0.2827918656948109
0.3542958817020365
0.4375000000000013
0
0.05417095969041621
0.109766949428772
0.1651498926421965
0.2254952821578617
0.2872226997787795
0.3609059217574862
0.4435916106694494
0.5468750000000016
0
0.06934271090079867
0.1389125556121366
0.2102518912163457
0.282791865694811
0.360905921757486
0.443675236439413
0.5433179557383612
0.6562500000000014
0
0.08716290042231419
0.1757635990343533
0.2626817995817315
0.3542958817020365
0.4435916106694493
0.5433179557383612
0.6453707627666231
0.7656250000000022
0
0.1093750000000003
0.2187500000000006
0.3281250000000007
0.4375000000000013
0.5468750000000016
0.6562500000000014
0.7656250000000022
0.8750000000000026
0
0
0
0
0
0
0
0
0
0
0.01002750983375028
0.02031732913396096
0.03106651241185986
0.04285254275300804
0.05603694678651512
0.07218773061036154
0.09318922116246142
0.1250000000000003
0
0.02031732913396096
0.04082712956661362
0.06279551835353427
0.08577577753777552
0.1126462264220762
0.1434584327699669
0.1841692044224174
0.2500000000000007
0
0.03106651241185986
0.06279551835353425
0.09574890481691406
0.1314208916346474
0.1709680659338322
0.2188193205940788
0.2808734513512848
0.3750000000000012
0
0.04285254275300804
0.08577577753777553
0.1314208916346474
0.1780866330333194
0.2320192752352959
0.292220020187038
0.3715198433954963
0.5000000000000013
0
0.05603694678651512
0.1126462264220762
0.1709680659338322
0.2320192752352959
0.2985790612314976
0.3756746071777436
0.4749262523006871
0.6250000000000018
0
0.07218773061036157
0.1434584327699669
0.2188193205940789
0.292220020187038
0.3756746071777437
0.4612010204068718
0.5726099041767628
0.7500000000000023
0
0.09318922116246141
0.1841692044224174
0.2808734513512848
0.3715198433954962
0.4749262523006871
0.5726099041767627
0.7016227984549726
0.8750000000000026
0
0.1250000000000003
0.2500000000000007
0.3750000000000012
0.5000000000000013
0.6250000000000018
0.7500000000000023
0.8750000000000026
1.000000000000003
