# vtk DataFile Version 2.0
fem_34.vtk
ASCII
DATASET UNSTRUCTURED_GRID
POINTS 729 float
0 0 0
0.125 0 0
0.25 0 0
0.375 0 0
0.5 0 0
0.625 0 0
0.75 0 0
0.875 0 0
1 0 0
0 0.125 0
0.125 0.125 0
0.25 0.125 0
0.375 0.125 0
0.5 0.125 0
0.625 0.125 0
0.75 0.125 0
0.875 0.125 0
1 0.125 0
0 0.25 0
0.125 0.25 0
0.25 0.25 0
0.375 0.25 0
0.5 0.25 0
0.625 0.25 0
0.75 0.25 0
0.875 0.25 0
1 0.25 0
0 0.375 0
0.125 0.375 0
0.25 0.375 0
0.375 0.375 0
0.5 0.375 0
0.625 0.375 0
0.75 0.375 0
0.875 0.375 0
1 0.375 0
0 0.5 0
0.125 0.5 0
0.25 0.5 0
0.375 0.5 0
0.5 0.5 0
0.625 0.5 0
0.75 0.5 0
0.875 0.5 0
1 0.5 0
0 0.625 0
0.125 0.625 0
0.25 0.625 0
0.375 0.625 0
0.5 0.625 0
0.625 0.625 0
0.75 0.625 0
0.875 0.625 0
1 0.625 0
0 0.75 0
0.125 0.75 0
0.25 0.75 0
0.375 0.75 0
0.5 0.75 0
0.625 0.75 0
0.75 0.75 0
0.875 0.75 0
1 0.75 0
0 0.875 0
0.125 0.875 0
0.25 0.875 0
0.375 0.875 0
0.5 0.875 0
0.625 0.875 0
0.75 0.875 0
0.875 0.875 0
1 0.875 0
0 1 0
0.125 1 0
0.25 1 0
0.375 1 0
0.5 1 0
0.625 1 0
0.75 1 0
0.875 1 0
1 1 0
0 0 0.125
0.125 0 0.125
0.25 0 0.125
0.375 0 0.125
0.5 0 0.125
0.625 0 0.125
0.75 0 0.125
0.875 0 0.125
1 0 0.125
0 0.125 0.125
0.125 0.125 0.125
0.25 0.125 0.125
0.375 0.125 0.125
0.5 0.125 0.125
0.625 0.125 0.125
0.75 0.125 0.125
0.875 0.125 0.125
1 0.125 0.125
0 0.25 0.125
0.125 0.25 0.125
0.25 0.25 0.125
0.375 0.25 0.125
0.5 0.25 0.125
0.625 0.25 0.125
0.75 0.25 0.125
0.875 0.25 0.125
1 0.25 0.125
0 0.375 0.125
0.125 0.375 0.125
0.25 0.375 0.125
0.375 0.375 0.125
0.5 0.375 0.125
0.625 0.375 0.125
0.75 0.375 0.125
0.875 0.375 0.125
1 0.375 0.125
0 0.5 0.125
0.125 0.5 0.125
0.25 0.5 0.125
0.375 0.5 0.125
0.5 0.5 0.125
0.625 0.5 0.125
0.75 0.5 0.125
0.875 0.5 0.125
1 0.5 0.125
0 0.625 0.125
0.125 0.625 0.125
0.25 0.625 0.125
0.375 0.625 0.125
0.5 0.625 0.125
0.625 0.625 0.125
0.75 0.625 0.125
0.875 0.625 0.125
1 0.625 0.125
0 0.75 0.125
0.125 0.75 0.125
0.25 0.75 0.125
0.375 0.75 0.125
0.5 0.75 0.125
0.625 0.75 0.125
0.75 0.75 0.125
0.875 0.75 0.125
1 0.75 0.125
0 0.875 0.125
0.125 0.875 0.125
0.25 0.875 0.125
0.375 0.875 0.125
0.5 0.875 0.125
0.625 0.875 0.125
0.75 0.875 0.125
0.875 0.875 0.125
1 0.875 0.125
0 1 0.125
0.125 1 0.125
0.25 1 0.125
0.375 1 0.125
0.5 1 0.125
0.625 1 0.125
0.75 1 0.125
0.875 1 0.125
1 1 0.125
0 0 0.25
0.125 0 0.25
0.25 0 0.25
0.375 0 0.25
0.5 0 0.25
0.625 0 0.25
0.75 0 0.25
0.875 0 0.25
1 0 0.25
0 0.125 0.25
0.125 0.125 0.25
0.25 0.125 0.25
0.375 0.125 0.25
0.5 0.125 0.25
0.625 0.125 0.25
0.75 0.125 0.25
0.875 0.125 0.25
1 0.125 0.25
0 0.25 0.25
0.125 0.25 0.25
0.25 0.25 0.25
0.375 0.25 0.25
0.5 0.25 0.25
0.625 0.25 0.25
0.75 0.25 0.25
0.875 0.25 0.25
1 0.25 0.25
0 0.375 0.25
0.125 0.375 0.25
0.25 0.375 0.25
0.375 0.375 0.25
0.5 0.375 0.25
0.625 0.375 0.25
0.75 0.375 0.25
0.875 0.375 0.25
1 0.375 0.25
0 0.5 0.25
0.125 0.5 0.25
0.25 0.5 0.25
0.375 0.5 0.25
0.5 0.5 0.25
0.625 0.5 0.25
0.75 0.5 0.25
0.875 0.5 0.25
1 0.5 0.25
0 0.625 0.25
0.125 0.625 0.25
0.25 0.625 0.25
0.375 0.625 0.25
0.5 0.625 0.25
0.625 0.625 0.25
0.75 0.625 0.25
0.875 0.625 0.25
1 0.625 0.25
0 0.75 0.25
0.125 0.75 0.25
0.25 0.75 0.25
0.375 0.75 0.25
0.5 0.75 0.25
0.625 0.75 0.25
0.75 0.75 0.25
0.875 0.75 0.25
1 0.75 0.25
0 0.875 0.25
0.125 0.875 0.25
0.25 0.875 0.25
0.375 0.875 0.25
0.5 0.875 0.25
0.625 0.875 0.25
0.75 0.875 0.25
0.875 0.875 0.25
1 0.875 0.25
0 1 0.25
0.125 1 0.25
0.25 1 0.25
0.375 1 0.25
0.5 1 0.25
0.625 1 0.25
0.75 1 0.25
0.875 1 0.25
1 1 0.25
0 0 0.375
0.125 0 0.375
0.25 0 0.375
0.375 0 0.375
0.5 0 0.375
0.625 0 0.375
0.75 0 0.375
0.875 0 0.375
1 0 0.375
0 0.125 0.375
0.125 0.125 0.375
0.25 0.125 0.375
0.375 0.125 0.375
0.5 0.125 0.375
0.625 0.125 0.375
0.75 0.125 0.375
0.875 0.125 0.375
1 0.125 0.375
0 0.25 0.375
0.125 0.25 0.375
0.25 0.25 0.375
0.375 0.25 0.375
0.5 0.25 0.375
0.625 0.25 0.375
0.75 0.25 0.375
0.875 0.25 0.375
1 0.25 0.375
0 0.375 0.375
0.125 0.375 0.375
0.25 0.375 0.375
0.375 0.375 0.375
0.5 0.375 0.375
0.625 0.375 0.375
0.75 0.375 0.375
0.875 0.375 0.375
1 0.375 0.375
0 0.5 0.375
0.125 0.5 0.375
0.25 0.5 0.375
0.375 0.5 0.375
0.5 0.5 0.375
0.625 0.5 0.375
0.75 0.5 0.375
0.875 0.5 0.375
1 0.5 0.375
0 0.625 0.375
0.125 0.625 0.375
0.25 0.625 0.375
0.375 0.625 0.375
0.5 0.625 0.375
0.625 0.625 0.375
0.75 0.625 0.375
0.875 0.625 0.375
1 0.625 0.375
0 0.75 0.375
0.125 0.75 0.375
0.25 0.75 0.375
0.375 0.75 0.375
0.5 0.75 0.375
0.625 0.75 0.375
0.75 0.75 0.375
0.875 0.75 0.375
1 0.75 0.375
0 0.875 0.375
0.125 0.875 0.375
0.25 0.875 0.375
0.375 0.875 0.375
0.5 0.875 0.375
0.625 0.875 0.375
0.75 0.875 0.375
0.875 0.875 0.375
1 0.875 0.375
0 1 0.375
0.125 1 0.375
0.25 1 0.375
0.375 1 0.375
0.5 1 0.375
0.625 1 0.375
0.75 1 0.375
0.875 1 0.375
1 1 0.375
0 0 0.5
0.125 0 0.5
0.25 0 0.5
0.375 0 0.5
0.5 0 0.5
0.625 0 0.5
0.75 0 0.5
0.875 0 0.5
1 0 0.5
0 0.125 0.5
0.125 0.125 0.5
0.25 0.125 0.5
0.375 0.125 0.5
0.5 0.125 0.5
0.625 0.125 0.5
0.75 0.125 0.5
0.875 0.125 0.5
1 0.125 0.5
0 0.25 0.5
0.125 0.25 0.5
0.25 0.25 0.5
0.375 0.25 0.5
0.5 0.25 0.5
0.625 0.25 0.5
0.75 0.25 0.5
0.875 0.25 0.5
1 0.25 0.5
0 0.375 0.5
0.125 0.375 0.5
0.25 0.375 0.5
0.375 0.375 0.5
0.5 0.375 0.5
0.625 0.375 0.5
0.75 0.375 0.5
0.875 0.375 0.5
1 0.375 0.5
0 0.5 0.5
0.125 0.5 0.5
0.25 0.5 0.5
0.375 0.5 0.5
0.5 0.5 0.5
0.625 0.5 0.5
0.75 0.5 0.5
0.875 0.5 0.5
1 0.5 0.5
0 0.625 0.5
0.125 0.625 0.5
0.25 0.625 0.5
0.375 0.625 0.5
0.5 0.625 0.5
0.625 0.625 0.5
0.75 0.625 0.5
0.875 0.625 0.5
1 0.625 0.5
0 0.75 0.5
0.125 0.75 0.5
0.25 0.75 0.5
0.375 0.75 0.5
0.5 0.75 0.5
0.625 0.75 0.5
0.75 0.75 0.5
0.875 0.75 0.5
1 0.75 0.5
0 0.875 0.5
0.125 0.875 0.5
0.25 0.875 0.5
0.375 0.875 0.5
0.5 0.875 0.5
0.625 0.875 0.5
0.75 0.875 0.5
0.875 0.875 0.5
1 0.875 0.5
0 1 0.5
0.125 1 0.5
0.25 1 0.5
0.375 1 0.5
0.5 1 0.5
0.625 1 0.5
0.75 1 0.5
0.875 1 0.5
1 1 0.5
0 0 0.625
0.125 0 0.625
0.25 0 0.625
0.375 0 0.625
0.5 0 0.625
0.625 0 0.625
0.75 0 0.625
0.875 0 0.625
1 0 0.625
0 0.125 0.625
0.125 0.125 0.625
0.25 0.125 0.625
0.375 0.125 0.625
0.5 0.125 0.625
0.625 0.125 0.625
0.75 0.125 0.625
0.875 0.125 0.625
1 0.125 0.625
0 0.25 0.625
0.125 0.25 0.625
0.25 0.25 0.625
0.375 0.25 0.625
0.5 0.25 0.625
0.625 0.25 0.625
0.75 0.25 0.625
0.875 0.25 0.625
1 0.25 0.625
0 0.375 0.625
0.125 0.375 0.625
0.25 0.375 0.625
0.375 0.375 0.625
0.5 0.375 0.625
0.625 0.375 0.625
0.75 0.375 0.625
0.875 0.375 0.625
1 0.375 0.625
0 0.5 0.625
0.125 0.5 0.625
0.25 0.5 0.625
0.375 0.5 0.625
0.5 0.5 0.625
0.625 0.5 0.625
0.75 0.5 0.625
0.875 0.5 0.625
1 0.5 0.625
0 0.625 0.625
0.125 0.625 0.625
0.25 0.625 0.625
0.375 0.625 0.625
0.5 0.625 0.625
0.625 0.625 0.625
0.75 0.625 0.625
0.875 0.625 0.625
1 0.625 0.625
0 0.75 0.625
0.125 0.75 0.625
0.25 0.75 0.625
0.375 0.75 0.625
0.5 0.75 0.625
0.625 0.75 0.625
0.75 0.75 0.625
0.875 0.75 0.625
1 0.75 0.625
0 0.875 0.625
0.125 0.875 0.625
0.25 0.875 0.625
0.375 0.875 0.625
0.5 0.875 0.625
0.625 0.875 0.625
0.75 0.875 0.625
0.875 0.875 0.625
1 0.875 0.625
0 1 0.625
0.125 1 0.625
0.25 1 0.625
0.375 1 0.625
0.5 1 0.625
0.625 1 0.625
0.75 1 0.625
0.875 1 0.625
1 1 0.625
0 0 0.75
0.125 0 0.75
0.25 0 0.75
0.375 0 0.75
0.5 0 0.75
0.625 0 0.75
0.75 0 0.75
0.875 0 0.75
1 0 0.75
0 0.125 0.75
0.125 0.125 0.75
0.25 0.125 0.75
0.375 0.125 0.75
0.5 0.125 0.75
0.625 0.125 0.75
0.75 0.125 0.75
0.875 0.125 0.75
1 0.125 0.75
0 0.25 0.75
0.125 0.25 0.75
0.25 0.25 0.75
0.375 0.25 0.75
0.5 0.25 0.75
0.625 0.25 0.75
0.75 0.25 0.75
0.875 0.25 0.75
1 0.25 0.75
0 0.375 0.75
0.125 0.375 0.75
0.25 0.375 0.75
0.375 0.375 0.75
0.5 0.375 0.75
0.625 0.375 0.75
0.75 0.375 0.75
0.875 0.375 0.75
1 0.375 0.75
0 0.5 0.75
0.125 0.5 0.75
0.25 0.5 0.75
0.375 0.5 0.75
0.5 0.5 0.75
0.625 0.5 0.75
0.75 0.5 0.75
0.875 0.5 0.75
1 0.5 0.75
0 0.625 0.75
0.125 0.625 0.75
0.25 0.625 0.75
0.375 0.625 0.75
0.5 0.625 0.75
0.625 0.625 0.75
0.75 0.625 0.75
0.875 0.625 0.75
1 0.625 0.75
0 0.75 0.75
0.125 0.75 0.75
0.25 0.75 0.75
0.375 0.75 0.75
0.5 0.75 0.75
0.625 0.75 0.75
0.75 0.75 0.75
0.875 0.75 0.75
1 0.75 0.75
0 0.875 0.75
0.125 0.875 0.75
0.25 0.875 0.75
0.375 0.875 0.75
0.5 0.875 0.75
0.625 0.875 0.75
0.75 0.875 0.75
0.875 0.875 0.75
1 0.875 0.75
0 1 0.75
0.125 1 0.75
0.25 1 0.75
0.375 1 0.75
0.5 1 0.75
0.625 1 0.75
0.75 1 0.75
0.875 1 0.75
1 1 0.75
0 0 0.875
0.125 0 0.875
0.25 0 0.875
0.375 0 0.875
0.5 0 0.875
0.625 0 0.875
0.75 0 0.875
0.875 0 0.875
1 0 0.875
0 0.125 0.875
0.125 0.125 0.875
0.25 0.125 0.875
0.375 0.125 0.875
0.5 0.125 0.875
0.625 0.125 0.875
0.75 0.125 0.875
0.875 0.125 0.875
1 0.125 0.875
0 0.25 0.875
0.125 0.25 0.875
0.25 0.25 0.875
0.375 0.25 0.875
0.5 0.25 0.875
0.625 0.25 0.875
0.75 0.25 0.875
0.875 0.25 0.875
1 0.25 0.875
0 0.375 0.875
0.125 0.375 0.875
0.25 0.375 0.875
0.375 0.375 0.875
0.5 0.375 0.875
0.625 0.375 0.875
0.75 0.375 0.875
0.875 0.375 0.875
1 0.375 0.875
0 0.5 0.875
0.125 0.5 0.875
0.25 0.5 0.875
0.375 0.5 0.875
0.5 0.5 0.875
0.625 0.5 0.875
0.75 0.5 0.875
0.875 0.5 0.875
1 0.5 0.875
0 0.625 0.875
0.125 0.625 0.875
0.25 0.625 0.875
0.375 0.625 0.875
0.5 0.625 0.875
0.625 0.625 0.875
0.75 0.625 0.875
0.875 0.625 0.875
1 0.625 0.875
0 0.75 0.875
0.125 0.75 0.875
0.25 0.75 0.875
0.375 0.75 0.875
0.5 0.75 0.875
0.625 0.75 0.875
0.75 0.75 0.875
0.875 0.75 0.875
1 0.75 0.875
0 0.875 0.875
0.125 0.875 0.875
0.25 0.875 0.875
0.375 0.875 0.875
0.5 0.875 0.875
0.625 0.875 0.875
0.75 0.875 0.875
0.875 0.875 0.875
1 0.875 0.875
0 1 0.875
0.125 1 0.875
0.25 1 0.875
0.375 1 0.875
0.5 1 0.875
0.625 1 0.875
0.75 1 0.875
0.875 1 0.875
1 1 0.875
0 0 1
0.125 0 1
0.25 0 1
0.375 0 1
0.5 0 1
0.625 0 1
0.75 0 1
0.875 0 1
1 0 1
0 0.125 1
0.125 0.125 1
0.25 0.125 1
0.375 0.125 1
0.5 0.125 1
0.625 0.125 1
0.75 0.125 1
0.875 0.125 1
1 0.125 1
0 0.25 1
0.125 0.25 1
0.25 0.25 1
0.375 0.25 1
0.5 0.25 1
0.625 0.25 1
0.75 0.25 1
0.875 0.25 1
1 0.25 1
0 0.375 1
0.125 0.375 1
0.25 0.375 1
0.375 0.375 1
0.5 0.375 1
0.625 0.375 1
0.75 0.375 1
0.875 0.375 1
1 0.375 1
0 0.5 1
0.125 0.5 1
0.25 0.5 1
0.375 0.5 1
0.5 0.5 1
0.625 0.5 1
0.75 0.5 1
0.875 0.5 1
1 0.5 1
0 0.625 1
0.125 0.625 1
0.25 0.625 1
0.375 0.625 1
0.5 0.625 1
0.625 0.625 1
0.75 0.625 1
0.875 0.625 1
1 0.625 1
[...]
POINT_DATA 729
SCALARS scalars float
LOOKUP_TABLE default
0
0
0
0
0
0
0
0
0
0
0
0
0
0
0
0
0
0
0
0
0
0
0
0
0
0
0
0
0
0
0
0
0
0
0
0
0
0
0
0
0
0
0
0
0
0
0
0
0
0
0
0
0
0
0
0
0
0
0
0
0
0
0
0
0
0
0
0
0
0
0
0
0
0
0
0
0
0
0
0
0
0
0
0
0
0
0
0
0
0
0
0.001953125026783653
0.003906250010349853
0.005859375032017811
0.007812499989432897
0.009765624996319057
0.01171875001652686
0.01367187506003325
0.015625
0
0.003906250010349852
0.007812500024767704
0.0117187500021396
0.01562500000831767
0.01953124999261185
0.02343749998637946
0.02734375001799058
0.03125
0
0.005859375032017811
0.01171875000213959
0.017578124960916
0.0234374999835898
0.02929687501303137
0.03515624997976341
0.04101562501732045
0.04687500000000001
0
0.007812499989432896
0.01562500000831767
0.0234374999835898
0.03124999999082642
0.03906249998547538
0.04687500002040736
0.05468750002817539
0.0625
0
0.009765624996319056
0.01953124999261185
0.02929687501303136
0.03906249998547539
0.04882812499110226
0.05859375002130287
0.06835937504795953
0.078125
0
0.01171875001652686
0.02343749998637946
0.03515624997976342
0.04687500002040736
0.05859375002130286
0.07031250002061415
0.08203125001244596
0.09375000000000001
0
0.01367187506003324
0.02734375001799058
0.04101562501732044
0.0546875000281754
0.06835937504795954
0.08203125001244595
0.09570312499241336
0.109375
0
0.015625
0.03125
0.04687500000000001
0.0625
0.078125
0.09375000000000001
0.109375
0.125
0
0
0
0
0
0
0
0
0
0
0.003906250010349852
0.007812500024767705
0.01171875000213959
0.01562500000831767
0.01953124999261185
0.02343749998637946
0.02734375001799058
0.03125
0
0.007812500024767704
0.01562500009474168
0.02343749998256229
0.03125000000611166
0.03906250000086885
0.04687500001148659
0.0546875000584108
0.0625
0
0.01171875000213959
0.02343749998256229
0.03515624998601705
0.04687499997954412
0.05859374997348678
0.07031249999210033
0.08203125001414431
0.09375000000000001
0
0.01562500000831767
0.03125000000611165
0.04687499997954411
0.06250000001827578
0.07812500000997345
0.09374999998447296
0.1093750000057423
0.125
0
0.01953124999261185
0.03906250000086884
0.05859374997348678
0.07812500000997345
0.09765624999478774
0.1171875000115302
0.1367187500185129
0.15625
0
0.02343749998637946
0.04687500001148659
0.07031249999210033
0.09374999998447295
0.1171875000115302
0.1406250000154204
0.1640625000187874
0.1875
0
0.02734375001799058
0.05468750005841081
0.08203125001414431
0.1093750000057423
0.1367187500185129
0.1640625000187874
0.1914062499937884
0.21875
0
0.03125
0.0625
0.09375000000000001
0.125
0.15625
0.1875
0.21875
0.25
0
0
0
0
0
0
0
0
0
0
0.00585937503201781
0.01171875000213959
0.01757812496091599
0.0234374999835898
0.02929687501303136
0.03515624997976342
0.04101562501732046
0.04687500000000001
0
0.01171875000213959
0.02343749998256229
0.03515624998601705
0.04687499997954411
0.0585937499734868
0.07031249999210035
0.08203125001414432
0.09375000000000001
0
0.01757812496091599
0.03515624998601705
0.05273437499907763
0.07031250004522578
0.08789062495903167
0.1054687499410515
0.1230468750131088
0.140625
0
0.0234374999835898
0.04687499997954411
0.07031250004522577
0.09375000003081944
0.1171875000009126
0.1406249999849629
0.1640624999961534
0.1875
0
0.02929687501303136
0.0585937499734868
0.08789062495903167
0.1171875000009126
0.146484375001922
0.175781249985845
0.2050781249959778
0.2343750000000001
0
0.03515624997976341
0.07031249999210035
0.1054687499410515
0.1406249999849629
0.175781249985845
0.2109374999818396
0.2460937499643158
0.28125
0
0.04101562501732045
0.08203125001414432
0.1230468750131088
0.1640624999961533
0.2050781249959778
0.2460937499643159
0.2871093749726771
0.3281249999999999
0
0.04687500000000001
0.09375000000000001
0.140625
0.1875
0.2343750000000001
0.28125
0.3281249999999999
0.3750000000000001
0
0
0
0
0
0
0
0
0
0
0.007812499989432896
0.01562500000831767
0.0234374999835898
0.03124999999082642
0.0390624999854754
0.04687500002040736
0.05468750002817541
0.0625
0
0.01562500000831767
0.03125000000611166
0.04687499997954412
0.06250000001827578
0.07812500000997345
0.09374999998447293
0.1093750000057423
0.125
0
0.0234374999835898
0.04687499997954411
0.07031250004522578
0.09375000003081944
0.1171875000009126
0.140624999984963
0.1640624999961534
0.1875
0
0.03124999999082642
0.06250000001827578
0.09375000003081943
0.1250000000921498
0.1562500000113535
0.1874999999760528
0.2187499999941454
0.25
0
0.03906249998547539
0.07812500000997345
0.1171875000009126
0.1562500000113535
0.1953125000353087
0.2343749999888485
0.2734374999976922
0.3125
0
0.04687500002040736
0.09374999998447293
0.140624999984963
0.1874999999760528
0.2343749999888484
0.2812499999701545
0.3281249999829051
0.3750000000000001
0
0.05468750002817541
0.1093750000057423
0.1640624999961533
0.2187499999941454
0.2734374999976923
0.3281249999829051
0.3828124999869623
0.4375
0
0.0625
0.125
0.1875
0.25
0.3125
0.3750000000000001
0.4375
0.5
0
0
0
0
0
0
0
0
0
0
0.009765624996319056
0.01953124999261185
0.02929687501303136
0.03906249998547539
0.04882812499110226
0.05859375002130288
0.06835937504795954
0.078125
0
0.01953124999261185
0.03906250000086885
0.05859374997348679
0.07812500000997345
0.09765624999478775
0.1171875000115302
0.1367187500185129
0.15625
0
0.02929687501303136
0.0585937499734868
0.08789062495903166
0.1171875000009126
0.146484375001922
0.175781249985845
0.2050781249959779
0.2343750000000001
0
0.03906249998547539
0.07812500000997345
0.1171875000009126
0.1562500000113535
0.1953125000353087
0.2343749999888485
0.2734374999976922
0.3125
0
0.04882812499110226
0.09765624999478775
0.1464843750019221
0.1953125000353087
0.2441406250313537
0.2929687500194684
0.3417968749943075
0.3906249999999999
0
0.05859375002130287
0.1171875000115302
0.175781249985845
0.2343749999888485
0.2929687500194684
0.3515625000034174
0.4101562500091094
0.4687500000000001
0
0.06835937504795955
0.1367187500185129
0.2050781249959779
0.2734374999976923
0.3417968749943075
0.4101562500091094
0.4785156249986096
0.5468750000000002
0
0.078125
0.15625
0.2343750000000001
0.3125
0.3906249999999999
0.4687500000000001
0.5468750000000002
0.625
0
0
0
0
0
0
0
0
0
0
0.01171875001652686
0.02343749998637946
0.03515624997976341
0.04687500002040737
0.05859375002130288
0.07031250002061415
0.08203125001244596
0.09375000000000001
0
0.02343749998637946
0.04687500001148659
0.07031249999210033
0.09374999998447295
0.1171875000115302
0.1406250000154203
0.1640625000187874
0.1875
0
0.03515624997976342
0.07031249999210035
0.1054687499410515
0.140624999984963
0.175781249985845
0.2109374999818396
0.2460937499643159
0.28125
0
0.04687500002040736
0.09374999998447296
0.140624999984963
0.1874999999760528
0.2343749999888485
0.2812499999701546
0.328124999982905
0.3750000000000001
0
0.05859375002130288
0.1171875000115302
0.175781249985845
0.2343749999888485
0.2929687500194684
0.3515625000034174
0.4101562500091094
0.4687500000000001
0
0.07031250002061415
0.1406250000154204
0.2109374999818397
0.2812499999701545
0.3515625000034174
0.4218750000535953
0.4921875000115494
0.5625
0
0.08203125001244596
0.1640625000187875
0.2460937499643159
0.328124999982905
0.4101562500091094
0.4921875000115495
0.5742187500111258
0.6562499999999999
0
0.09375000000000001
0.1875
0.28125
0.3750000000000001
0.4687500000000001
0.5625
0.6562499999999999
0.7500000000000001
0
0
0
0
0
0
0
0
0
0
0.01367187506003324
0.02734375001799058
0.04101562501732045
0.0546875000281754
0.06835937504795955
0.08203125001244595
0.09570312499241337
0.109375
0
0.02734375001799058
0.0546875000584108
0.08203125001414432
0.1093750000057423
0.1367187500185129
0.1640625000187875
0.1914062499937885
0.21875
0
0.04101562501732045
0.08203125001414431
0.1230468750131088
0.1640624999961534
0.2050781249959779
0.2460937499643159
0.2871093749726772
0.3281249999999999
0
0.05468750002817541
0.1093750000057424
0.1640624999961534
0.2187499999941454
0.2734374999976923
0.3281249999829051
0.3828124999869623
0.4375
0
0.06835937504795955
0.1367187500185129
0.2050781249959779
0.2734374999976923
0.3417968749943076
0.4101562500091095
0.4785156249986096
0.5468750000000002
0
0.08203125001244595
0.1640625000187874
0.2460937499643158
0.3281249999829051
0.4101562500091094
0.4921875000115495
0.5742187500111258
0.6562499999999999
0
0.09570312499241336
0.1914062499937884
0.2871093749726771
0.3828124999869623
0.4785156249986095
0.5742187500111259
0.6699218750102489
0.7656250000000001
0
0.109375
0.21875
0.3281249999999999
0.4375
0.5468750000000002
0.6562499999999999
0.7656250000000001
0.875
0
0
0
0
0
0
0
0
0
0
0.015625
0.03125
0.04687500000000001
0.0625
0.078125
0.09375000000000001
0.109375
0.125
0
0.03125
0.0625
0.09375000000000001
0.125
0.15625
0.1875
0.21875
0.25
0
0.04687500000000001
0.09375000000000001
0.140625
0.1875
0.2343750000000001
0.28125
0.3281249999999999
0.3750000000000001
0
0.0625
0.125
0.1875
0.25
0.3125
0.3750000000000001
0.4375
0.5
0
0.078125
0.15625
0.2343750000000001
0.3125
0.3906249999999999
0.4687500000000001
0.5468750000000002
0.625
0
0.09375000000000001
0.1875
0.28125
0.3750000000000001
0.4687500000000001
0.5625
0.6562499999999999
0.7500000000000001
0
0.109375
0.21875
0.3281249999999999
0.4375
0.5468750000000002
0.6562499999999999
0.7656250000000001
0.875
0
0.125
0.25
0.3750000000000001
0.5
0.625
0.7500000000000001
0.875
1
